<event>
 4    1 -0.5245809E-019  0.1497773E+02  0.7818608E-02  0.1868749E+00
         -2   -1    0    0    0  501 -0.00000000000E+00  0.00000000000E+00  0.11979400464E+03  0.11979400466E+03  0.25500000000E-02 0. -1.
          2   -1    0    0  501    0  0.00000000000E+00 -0.00000000000E+00 -0.46815910613E+00  0.46816605083E+00  0.25500000000E-02 0.  1.
         31    1    1    2    0    0 -0.12891190132E+00 -0.44195677763E+00  0.54507802113E+02  0.55016100928E+02  0.74470750000E+01 0.  1.
        -31    1    1    2    0    0  0.12891190132E+00  0.44195677763E+00  0.64818043416E+02  0.65246069785E+02  0.74470750000E+01 0. -1.
<mgrwt>
<rscale>  0 0.14977727E+02</rscale>
<asrwt>0</asrwt>
<pdfrwt beam="2">  1        2 0.99432858E+00 0.14977727E+02</pdfrwt>
<pdfrwt beam="1">  1       -2 0.99441177E+00 0.14977727E+02</pdfrwt>
<totfact>-0.12678743E-13</totfact>
</mgrwt>
</event>
<event>
 4    1 -0.5245809E-019  0.1491835E+02  0.7818608E-02  0.1870570E+00
          2   -1    0    0  501    0  0.00000000000E+00  0.00000000000E+00  0.11853245278E+03  0.11853245280E+03  0.25500000000E-02 0.  1.
         -2   -1    0    0    0  501 -0.00000000000E+00 -0.00000000000E+00 -0.46939796762E+00  0.46940489399E+00  0.25500000000E-02 0. -1.
         31    1    1    2    0    0 -0.37969136219E+00 -0.11553444418E+00  0.60237761865E+02  0.60697647354E+02  0.74470750000E+01 0.  1.
        -31    1    1    2    0    0  0.37969136219E+00  0.11553444418E+00  0.57825292943E+02  0.58304210344E+02  0.74470750000E+01 0. -1.
<mgrwt>
<rscale>  0 0.14918352E+02</rscale>
<asrwt>0</asrwt>
<pdfrwt beam="1">  1        2 0.98399062E+00 0.14918352E+02</pdfrwt>
<pdfrwt beam="2">  1       -2 0.99690809E+00 0.14918352E+02</pdfrwt>
<totfact>-0.33473423E-13</totfact>
</mgrwt>
</event>
<event>
 4    1 -0.5245809E-019  0.1495066E+02  0.7818608E-02  0.1869578E+00
         -2   -1    0    0    0  501 -0.00000000000E+00  0.00000000000E+00  0.11968593907E+03  0.11968593910E+03  0.25500000000E-02 0. -1.
          2   -1    0    0  501    0  0.00000000000E+00 -0.00000000000E+00 -0.46688968382E+00  0.46689664740E+00  0.25500000000E-02 0.  1.
         31    1    1    2    0    0  0.45430344304E+00  0.41438799186E+00  0.57933061888E+02  0.58412983957E+02  0.74470750000E+01 0.  1.
        -31    1    1    2    0    0 -0.45430344304E+00 -0.41438799186E+00  0.61285987499E+02  0.61739851788E+02  0.74470750000E+01 0. -1.
<mgrwt>
<rscale>  0 0.14950659E+02</rscale>
<asrwt>0</asrwt>
<pdfrwt beam="2">  1        2 0.99163947E+00 0.14950659E+02</pdfrwt>
<pdfrwt beam="1">  1       -2 0.99350771E+00 0.14950659E+02</pdfrwt>
<totfact>-0.14545272E-13</totfact>
</mgrwt>
</event>
<event>
 4    1 -0.5245809E-019  0.1494520E+02  0.7818608E-02  0.1869745E+00
         -2   -1    0    0    0  501 -0.00000000000E+00  0.00000000000E+00  0.11983771931E+03  0.11983771934E+03  0.25500000000E-02 0.  1.
          2   -1    0    0  501    0  0.00000000000E+00 -0.00000000000E+00 -0.46595783633E+00  0.46596481384E+00  0.25500000000E-02 0. -1.
         31    1    1    2    0    0  0.60642552891E+00  0.32797233569E-01  0.60567386169E+02  0.61026518998E+02  0.74470750000E+01 0.  1.
        -31    1    1    2    0    0 -0.60642552891E+00 -0.32797233569E-01  0.58804375308E+02  0.59277165157E+02  0.74470750000E+01 0.  1.
<mgrwt>
<rscale>  0 0.14945199E+02</rscale>
<asrwt>0</asrwt>
<pdfrwt beam="2">  1        2 0.98967286E+00 0.14945199E+02</pdfrwt>
<pdfrwt beam="1">  1       -2 0.99475503E+00 0.14945199E+02</pdfrwt>
<totfact>-0.18486502E-13</totfact>
</mgrwt>
</event>
<event>
 4    1 -0.5245809E-019  0.1494839E+02  0.7818608E-02  0.1869647E+00
         -2   -1    0    0    0  501 -0.00000000000E+00  0.00000000000E+00  0.11968285169E+03  0.11968285172E+03  0.25500000000E-02 0.  1.
          2   -1    0    0  501    0  0.00000000000E+00 -0.00000000000E+00 -0.46676021080E+00  0.46676717632E+00  0.25500000000E-02 0. -1.
         31    1    1    2    0    0 -0.13524106023E+00 -0.15832242849E+00  0.54776562374E+02  0.55280865295E+02  0.74470750000E+01 0. -1.
        -31    1    1    2    0    0  0.13524106023E+00  0.15832242849E+00  0.64439529105E+02  0.64868753599E+02  0.74470750000E+01 0.  1.
<mgrwt>
<rscale>  0 0.14948393E+02</rscale>
<asrwt>0</asrwt>
<pdfrwt beam="2">  1        2 0.99136545E+00 0.14948393E+02</pdfrwt>
<pdfrwt beam="1">  1       -2 0.99348111E+00 0.14948393E+02</pdfrwt>
<totfact>-0.14807745E-13</totfact>
</mgrwt>
</event>
<event>
 4    1 -0.5245809E-019  0.1495557E+02  0.7818608E-02  0.1869427E+00
         -2   -1    0    0    0  501 -0.00000000000E+00  0.00000000000E+00  0.11992529451E+03  0.11992529454E+03  0.25500000000E-02 0.  1.
          2   -1    0    0  501    0  0.00000000000E+00 -0.00000000000E+00 -0.46626401433E+00  0.46627098726E+00  0.25500000000E-02 0. -1.
         31    1    1    2    0    0 -0.42033002753E-01  0.64450266051E+00  0.58095671186E+02  0.58574594211E+02  0.74470750000E+01 0. -1.
        -31    1    1    2    0    0  0.42033002753E-01 -0.64450266051E+00  0.61363359310E+02  0.61816971313E+02  0.74470750000E+01 0.  1.
<mgrwt>
<rscale>  0 0.14955570E+02</rscale>
<asrwt>0</asrwt>
<pdfrwt beam="2">  1        2 0.99032344E+00 0.14955570E+02</pdfrwt>
<pdfrwt beam="1">  1       -2 0.99548170E+00 0.14955570E+02</pdfrwt>
<totfact>-0.16985040E-13</totfact>
</mgrwt>
</event>
<event>
 4    1  0.5245809E-019  0.1492222E+02  0.7818608E-02  0.1870451E+00
          2   -1    0    0  501    0  0.00000000000E+00  0.00000000000E+00  0.11990006470E+03  0.11990006473E+03  0.25500000000E-02 0. -1.
         -2   -1    0    0    0  501 -0.00000000000E+00 -0.00000000000E+00 -0.46428445152E+00  0.46429145418E+00  0.25500000000E-02 0.  1.
         31    1    1    2    0    0 -0.33958559447E+00 -0.95543357495E-01  0.57369197214E+02  0.57851604662E+02  0.74470750000E+01 0.  1.
        -31    1    1    2    0    0  0.33958559447E+00  0.95543357495E-01  0.62066583035E+02  0.62512751520E+02  0.74470750000E+01 0. -1.
<mgrwt>
<rscale>  0 0.14922220E+02</rscale>
<asrwt>0</asrwt>
<pdfrwt beam="1">  1        2 0.99525671E+00 0.14922220E+02</pdfrwt>
<pdfrwt beam="2">  1       -2 0.98613442E+00 0.14922220E+02</pdfrwt>
<totfact> 0.33148297E-13</totfact>
</mgrwt>
</event>
<event>
 4    1 -0.5245809E-019  0.1492735E+02  0.7818608E-02  0.1870294E+00
          2   -1    0    0  501    0  0.00000000000E+00  0.00000000000E+00  0.11858195826E+03  0.11858195829E+03  0.25500000000E-02 0.  1.
         -2   -1    0    0    0  501 -0.00000000000E+00 -0.00000000000E+00 -0.46976793628E+00  0.46977485719E+00  0.25500000000E-02 0. -1.
         31    1    1    2    0    0  0.19649882802E+00 -0.77960446814E-01  0.62647685692E+02  0.63089112676E+02  0.74470750000E+01 0.  1.
        -31    1    1    2    0    0 -0.19649882802E+00  0.77960446814E-01  0.55464504633E+02  0.55962620469E+02  0.74470750000E+01 0. -1.
<mgrwt>
<rscale>  0 0.14927346E+02</rscale>
<asrwt>0</asrwt>
<pdfrwt beam="1">  1        2 0.98440303E+00 0.14927346E+02</pdfrwt>
<pdfrwt beam="2">  1       -2 0.99769236E+00 0.14927346E+02</pdfrwt>
<totfact>-0.25447509E-13</totfact>
</mgrwt>
</event>
<event>
 4    1 -0.5245809E-019  0.1493614E+02  0.7818608E-02  0.1870023E+00
         -2   -1    0    0    0  501 -0.00000000000E+00  0.00000000000E+00  0.11980965260E+03  0.11980965263E+03  0.25500000000E-02 0. -1.
          2   -1    0    0  501    0  0.00000000000E+00 -0.00000000000E+00 -0.46550209148E+00  0.46550907582E+00  0.25500000000E-02 0.  1.
         31    1    1    2    0    0 -0.37151207077E+00  0.26094871440E+00  0.57037696567E+02  0.57523594039E+02  0.74470750000E+01 0. -1.
        -31    1    1    2    0    0  0.37151207077E+00 -0.26094871440E+00  0.62306453944E+02  0.62751567666E+02  0.74470750000E+01 0. -1.
<mgrwt>
<rscale>  0 0.14936139E+02</rscale>
<asrwt>0</asrwt>
<pdfrwt beam="2">  1        2 0.98870775E+00 0.14936139E+02</pdfrwt>
<pdfrwt beam="1">  1       -2 0.99451919E+00 0.14936139E+02</pdfrwt>
<totfact>-0.20481286E-13</totfact>
</mgrwt>
</event>
<event>
 4    1 -0.5245809E-019  0.1495908E+02  0.7818608E-02  0.1869320E+00
         -2   -1    0    0    0  501 -0.00000000000E+00  0.00000000000E+00  0.11998526572E+03  0.11998526574E+03  0.25500000000E-02 0. -1.
          2   -1    0    0  501    0  0.00000000000E+00 -0.00000000000E+00 -0.46624969019E+00  0.46625666334E+00  0.25500000000E-02 0.  1.
         31    1    1    2    0    0 -0.62648948166E+00  0.11929092709E+00  0.62006440548E+02  0.62455298533E+02  0.74470750000E+01 0. -1.
        -31    1    1    2    0    0  0.62648948166E+00 -0.11929092709E+00  0.57512575478E+02  0.57996223873E+02  0.74470750000E+01 0.  1.
<mgrwt>
<rscale>  0 0.14959079E+02</rscale>
<asrwt>0</asrwt>
<pdfrwt beam="2">  1        2 0.99029506E+00 0.14959079E+02</pdfrwt>
<pdfrwt beam="1">  1       -2 0.99597746E+00 0.14959079E+02</pdfrwt>
<totfact>-0.16342806E-13</totfact>
</mgrwt>
</event>
<event>
 4    1 -0.5245809E-019  0.1498256E+02  0.7818608E-02  0.1868601E+00
         -2   -1    0    0    0  501 -0.00000000000E+00  0.00000000000E+00  0.12022276586E+03  0.12022276589E+03  0.25500000000E-02 0.  1.
          2   -1    0    0  501    0  0.00000000000E+00 -0.00000000000E+00 -0.46679065357E+00  0.46679761863E+00  0.25500000000E-02 0. -1.
         31    1    1    2    0    0 -0.60846160374E+00 -0.47052157958E+00  0.61990010830E+02  0.62440467526E+02  0.74470750000E+01 0.  1.
        -31    1    1    2    0    0  0.60846160374E+00  0.47052157958E+00  0.57765964377E+02  0.58249095980E+02  0.74470750000E+01 0. -1.
<mgrwt>
<rscale>  0 0.14982561E+02</rscale>
<asrwt>0</asrwt>
<pdfrwt beam="2">  1        2 0.99144716E+00 0.14982561E+02</pdfrwt>
<pdfrwt beam="1">  1       -2 0.99794575E+00 0.14982561E+02</pdfrwt>
<totfact>-0.95824565E-14</totfact>
</mgrwt>
</event>
<event>
 4    1 -0.5245809E-019  0.1495013E+02  0.7818608E-02  0.1869594E+00
          2   -1    0    0  501    0  0.00000000000E+00  0.00000000000E+00  0.11932364866E+03  0.11932364868E+03  0.25500000000E-02 0. -1.
         -2   -1    0    0    0  501 -0.00000000000E+00 -0.00000000000E+00 -0.46827418270E+00  0.46828112569E+00  0.25500000000E-02 0.  1.
         31    1    1    2    0    0 -0.77339866069E-01  0.43915561346E+00  0.63176056194E+02  0.63615028424E+02  0.74470750000E+01 0. -1.
        -31    1    1    2    0    0  0.77339866069E-01 -0.43915561346E+00  0.55679318281E+02  0.56176901387E+02  0.74470750000E+01 0.  1.
<mgrwt>
<rscale>  0 0.14950131E+02</rscale>
<asrwt>0</asrwt>
<pdfrwt beam="1">  1        2 0.99052349E+00 0.14950131E+02</pdfrwt>
<pdfrwt beam="2">  1       -2 0.99455677E+00 0.14950131E+02</pdfrwt>
<totfact>-0.17039128E-13</totfact>
</mgrwt>
</event>
<event>
 4    1  0.5245809E-019  0.1492678E+02  0.7818608E-02  0.1870311E+00
          2   -1    0    0  501    0  0.00000000000E+00  0.00000000000E+00  0.12038783989E+03  0.12038783991E+03  0.25500000000E-02 0. -1.
         -2   -1    0    0    0  501 -0.00000000000E+00 -0.00000000000E+00 -0.46268590754E+00  0.46269293439E+00  0.25500000000E-02 0.  1.
         31    1    1    2    0    0  0.39822648758E+00 -0.28682469874E+00  0.59565582356E+02  0.60031311665E+02  0.74470750000E+01 0. -1.
        -31    1    1    2    0    0 -0.39822648758E+00  0.28682469874E+00  0.60359571622E+02  0.60819221182E+02  0.74470750000E+01 0.  1.
<mgrwt>
<rscale>  0 0.14926779E+02</rscale>
<asrwt>0</asrwt>
<pdfrwt beam="1">  1        2 0.99927676E+00 0.14926779E+02</pdfrwt>
<pdfrwt beam="2">  1       -2 0.98276754E+00 0.14926779E+02</pdfrwt>
<totfact> 0.19163752E-13</totfact>
</mgrwt>
</event>
<event>
 4    1 -0.5245809E-019  0.1492312E+02  0.7818608E-02  0.1870424E+00
         -2   -1    0    0    0  501 -0.00000000000E+00  0.00000000000E+00  0.12009197152E+03  0.12009197155E+03  0.25500000000E-02 0. -1.
          2   -1    0    0  501    0  0.00000000000E+00 -0.00000000000E+00 -0.46359820999E+00  0.46360522302E+00  0.25500000000E-02 0.  1.
         31    1    1    2    0    0  0.31531534141E+00 -0.12943088882E+00  0.57262814358E+02  0.57746038915E+02  0.74470750000E+01 0.  1.
        -31    1    1    2    0    0 -0.31531534141E+00  0.12943088882E+00  0.62365558955E+02  0.62809537858E+02  0.74470750000E+01 0. -1.
<mgrwt>
<rscale>  0 0.14923116E+02</rscale>
<asrwt>0</asrwt>
<pdfrwt beam="2">  1        2 0.98468855E+00 0.14923116E+02</pdfrwt>
<pdfrwt beam="1">  1       -2 0.99683786E+00 0.14923116E+02</pdfrwt>
<totfact>-0.30243390E-13</totfact>
</mgrwt>
</event>
<event>
 4    1  0.5245809E-019  0.1489922E+02  0.7818608E-02  0.1871159E+00
         -2   -1    0    0    0  501 -0.00000000000E+00  0.00000000000E+00  0.11844973436E+03  0.11844973438E+03  0.25500000000E-02 0. -1.
          2   -1    0    0  501    0  0.00000000000E+00 -0.00000000000E+00 -0.46852178405E+00  0.46852872337E+00  0.25500000000E-02 0.  1.
         31    1    1    2    0    0 -0.44016688714E-02 -0.18810176341E+00  0.59378953649E+02  0.59844418822E+02  0.74470750000E+01 0. -1.
        -31    1    1    2    0    0  0.44016688714E-02  0.18810176341E+00  0.58602258923E+02  0.59073844285E+02  0.74470750000E+01 0.  1.
<mgrwt>
<rscale>  0 0.14899221E+02</rscale>
<asrwt>0</asrwt>
<pdfrwt beam="2">  1        2 0.99505187E+00 0.14899221E+02</pdfrwt>
<pdfrwt beam="1">  1       -2 0.98329940E+00 0.14899221E+02</pdfrwt>
<totfact> 0.74081716E-13</totfact>
</mgrwt>
</event>
<event>
 4    1 -0.5245809E-019  0.1491746E+02  0.7818608E-02  0.1870598E+00
          2   -1    0    0  501    0  0.00000000000E+00  0.00000000000E+00  0.11909737456E+03  0.11909737459E+03  0.25500000000E-02 0.  1.
         -2   -1    0    0    0  501 -0.00000000000E+00 -0.00000000000E+00 -0.46711549836E+00  0.46712245857E+00  0.25500000000E-02 0. -1.
         31    1    1    2    0    0 -0.89158403498E-01  0.37873379092E+00  0.60512910476E+02  0.60970670399E+02  0.74470750000E+01 0.  1.
        -31    1    1    2    0    0  0.89158403498E-01 -0.37873379092E+00  0.58117348584E+02  0.58593826646E+02  0.74470750000E+01 0. -1.
<mgrwt>
<rscale>  0 0.14917459E+02</rscale>
<asrwt>0</asrwt>
<pdfrwt beam="1">  1        2 0.98864292E+00 0.14917459E+02</pdfrwt>
<pdfrwt beam="2">  1       -2 0.99209815E+00 0.14917459E+02</pdfrwt>
<totfact>-0.14142938E-13</totfact>
</mgrwt>
</event>
<event>
 4    1 -0.5245809E-019  0.1491512E+02  0.7818608E-02  0.1870670E+00
         -2   -1    0    0    0  501 -0.00000000000E+00  0.00000000000E+00  0.11988383114E+03  0.11988383117E+03  0.25500000000E-02 0.  1.
          2   -1    0    0  501    0  0.00000000000E+00 -0.00000000000E+00 -0.46390563620E+00  0.46391264458E+00  0.25500000000E-02 0. -1.
         31    1    1    2    0    0 -0.21432547334E+00  0.33203105143E+00  0.59628381501E+02  0.60092919604E+02  0.74470750000E+01 0.  1.
        -31    1    1    2    0    0  0.21432547334E+00 -0.33203105143E+00  0.59791544004E+02  0.60254824209E+02  0.74470750000E+01 0.  1.
<mgrwt>
<rscale>  0 0.14915121E+02</rscale>
<asrwt>0</asrwt>
<pdfrwt beam="2">  1        2 0.98533242E+00 0.14915121E+02</pdfrwt>
<pdfrwt beam="1">  1       -2 0.99511935E+00 0.14915121E+02</pdfrwt>
<totfact>-0.32802494E-13</totfact>
</mgrwt>
</event>
<event>
 4    1  0.5245809E-019  0.1493256E+02  0.7818608E-02  0.1870133E+00
         -2   -1    0    0    0  501 -0.00000000000E+00  0.00000000000E+00  0.11866167410E+03  0.11866167413E+03  0.25500000000E-02 0.  1.
          2   -1    0    0  501    0  0.00000000000E+00 -0.00000000000E+00 -0.46978033330E+00  0.46978725404E+00  0.25500000000E-02 0. -1.
         31    1    1    2    0    0  0.26322764105E+00 -0.37096059319E+00  0.61345508110E+02  0.61797550047E+02  0.74470750000E+01 0.  1.
        -31    1    1    2    0    0 -0.26322764105E+00  0.37096059319E+00  0.56846385656E+02  0.57333911333E+02  0.74470750000E+01 0. -1.
<mgrwt>
<rscale>  0 0.14932560E+02</rscale>
<asrwt>0</asrwt>
<pdfrwt beam="2">  1        2 0.99772123E+00 0.14932560E+02</pdfrwt>
<pdfrwt beam="1">  1       -2 0.98506227E+00 0.14932560E+02</pdfrwt>
<totfact> 0.28904222E-13</totfact>
</mgrwt>
</event>
<event>
 4    1  0.5245809E-019  0.1491568E+02  0.7818608E-02  0.1870652E+00
         -2   -1    0    0    0  501 -0.00000000000E+00  0.00000000000E+00  0.11854772737E+03  0.11854772739E+03  0.25500000000E-02 0. -1.
          2   -1    0    0  501    0  0.00000000000E+00 -0.00000000000E+00 -0.46916945679E+00  0.46917638653E+00  0.25500000000E-02 0.  1.
         31    1    1    2    0    0 -0.62310484989E-01 -0.39241558846E+00  0.58633335258E+02  0.59105708710E+02  0.74470750000E+01 0. -1.
        -31    1    1    2    0    0  0.62310484989E-01  0.39241558846E+00  0.59445222651E+02  0.59911195070E+02  0.74470750000E+01 0. -1.
<mgrwt>
<rscale>  0 0.14915681E+02</rscale>
<asrwt>0</asrwt>
<pdfrwt beam="2">  1        2 0.99642521E+00 0.14915681E+02</pdfrwt>
<pdfrwt beam="1">  1       -2 0.98411503E+00 0.14915681E+02</pdfrwt>
<totfact> 0.50719147E-13</totfact>
</mgrwt>
</event>
<event>
 4    1 -0.5245809E-019  0.1497944E+02  0.7818608E-02  0.1868696E+00
          2   -1    0    0  501    0  0.00000000000E+00  0.00000000000E+00  0.11943732034E+03  0.11943732037E+03  0.25500000000E-02 0. -1.
         -2   -1    0    0    0  501 -0.00000000000E+00 -0.00000000000E+00 -0.46966477118E+00  0.46967169362E+00  0.25500000000E-02 0.  1.
         31    1    1    2    0    0  0.19806501009E+00  0.77081035351E+00  0.59002610015E+02  0.59476048061E+02  0.74470750000E+01 0. -1.
        -31    1    1    2    0    0 -0.19806501009E+00 -0.77081035351E+00  0.59965045552E+02  0.60430943997E+02  0.74470750000E+01 0. -1.
<mgrwt>
<rscale>  0 0.14979442E+02</rscale>
<asrwt>0</asrwt>
<pdfrwt beam="1">  1        2 0.99147490E+00 0.14979442E+02</pdfrwt>
<pdfrwt beam="2">  1       -2 0.99750231E+00 0.14979442E+02</pdfrwt>
<totfact>-0.11108125E-13</totfact>
</mgrwt>
</event>
<event>
 4    1 -0.5245809E-019  0.1492668E+02  0.7818608E-02  0.1870314E+00
         -2   -1    0    0    0  501 -0.00000000000E+00  0.00000000000E+00  0.12039420030E+03  0.12039420033E+03  0.25500000000E-02 0.  1.
          2   -1    0    0  501    0  0.00000000000E+00 -0.00000000000E+00 -0.46265506882E+00  0.46266209614E+00  0.25500000000E-02 0. -1.
         31    1    1    2    0    0  0.46980065936E+00 -0.11222011664E+00  0.59189956394E+02  0.59658554877E+02  0.74470750000E+01 0. -1.
        -31    1    1    2    0    0 -0.46980065936E+00  0.11222011664E+00  0.60741588840E+02  0.61198307549E+02  0.74470750000E+01 0.  1.
<mgrwt>
<rscale>  0 0.14926676E+02</rscale>
<asrwt>0</asrwt>
<pdfrwt beam="2">  1        2 0.98270249E+00 0.14926676E+02</pdfrwt>
<pdfrwt beam="1">  1       -2 0.99932910E+00 0.14926676E+02</pdfrwt>
<totfact>-0.11402534E-13</totfact>
</mgrwt>
</event>
<event>
 4    1 -0.5245809E-019  0.1499894E+02  0.7818608E-02  0.1868101E+00
         -2   -1    0    0    0  501 -0.00000000000E+00  0.00000000000E+00  0.12018397057E+03  0.12018397059E+03  0.25500000000E-02 0. -1.
          2   -1    0    0  501    0  0.00000000000E+00 -0.00000000000E+00 -0.46796294384E+00  0.46796989146E+00  0.25500000000E-02 0.  1.
         31    1    1    2    0    0  0.36205191217E+00 -0.62124489255E+00  0.55708402482E+02  0.56208558601E+02  0.74470750000E+01 0. -1.
        -31    1    1    2    0    0 -0.36205191217E+00  0.62124489255E+00  0.64007605141E+02  0.64443381885E+02  0.74470750000E+01 0. -1.
<mgrwt>
<rscale>  0 0.14998942E+02</rscale>
<asrwt>0</asrwt>
<pdfrwt beam="2">  1        2 0.99392613E+00 0.14998942E+02</pdfrwt>
<pdfrwt beam="1">  1       -2 0.99763466E+00 0.14998942E+02</pdfrwt>
<totfact>-0.89038884E-14</totfact>
</mgrwt>
</event>
<event>
 4    1 -0.5245809E-019  0.1496631E+02  0.7818608E-02  0.1869098E+00
          2   -1    0    0  501    0  0.00000000000E+00  0.00000000000E+00  0.11968754059E+03  0.11968754062E+03  0.25500000000E-02 0.  1.
         -2   -1    0    0    0  501 -0.00000000000E+00 -0.00000000000E+00 -0.46786167576E+00  0.46786862488E+00  0.25500000000E-02 0. -1.
         31    1    1    2    0    0  0.54696123068E+00  0.41320141498E+00  0.57503945351E+02  0.57988210517E+02  0.74470750000E+01 0.  1.
        -31    1    1    2    0    0 -0.54696123068E+00 -0.41320141498E+00  0.61715733567E+02  0.62167198729E+02  0.74470750000E+01 0.  1.
<mgrwt>
<rscale>  0 0.14966313E+02</rscale>
<asrwt>0</asrwt>
<pdfrwt beam="1">  1        2 0.99352899E+00 0.14966313E+02</pdfrwt>
<pdfrwt beam="2">  1       -2 0.99369590E+00 0.14966313E+02</pdfrwt>
<totfact>-0.12933072E-13</totfact>
</mgrwt>
</event>
<event>
 4    1 -0.5245809E-019  0.1497105E+02  0.7818608E-02  0.1868953E+00
          2   -1    0    0  501    0  0.00000000000E+00  0.00000000000E+00  0.11967822331E+03  0.11967822334E+03  0.25500000000E-02 0. -1.
         -2   -1    0    0    0  501 -0.00000000000E+00 -0.00000000000E+00 -0.46819421976E+00  0.46820116394E+00  0.25500000000E-02 0.  1.
         31    1    1    2    0    0 -0.18002715082E+00 -0.30530799378E+00  0.54230358236E+02  0.54740444857E+02  0.74470750000E+01 0.  1.
        -31    1    1    2    0    0  0.18002715082E+00  0.30530799378E+00  0.64979670853E+02  0.65405979642E+02  0.74470750000E+01 0. -1.
<mgrwt>
<rscale>  0 0.14971048E+02</rscale>
<asrwt>0</asrwt>
<pdfrwt beam="1">  1        2 0.99345470E+00 0.14971048E+02</pdfrwt>
<pdfrwt beam="2">  1       -2 0.99439912E+00 0.14971048E+02</pdfrwt>
<totfact>-0.13588767E-13</totfact>
</mgrwt>
</event>
<event>
 4    1 -0.5245809E-019  0.1496562E+02  0.7818608E-02  0.1869119E+00
         -2   -1    0    0    0  501 -0.00000000000E+00  0.00000000000E+00  0.11971551140E+03  0.11971551143E+03  0.25500000000E-02 0. -1.
          2   -1    0    0  501    0  0.00000000000E+00 -0.00000000000E+00 -0.46770902262E+00  0.46771597400E+00  0.25500000000E-02 0.  1.
         31    1    1    2    0    0  0.60530690428E+00  0.35476227869E+00  0.57992569784E+02  0.58472979477E+02  0.74470750000E+01 0.  1.
        -31    1    1    2    0    0 -0.60530690428E+00 -0.35476227869E+00  0.61255232594E+02  0.61710247924E+02  0.74470750000E+01 0. -1.
<mgrwt>
<rscale>  0 0.14965620E+02</rscale>
<asrwt>0</asrwt>
<pdfrwt beam="2">  1        2 0.99337384E+00 0.14965620E+02</pdfrwt>
<pdfrwt beam="1">  1       -2 0.99375901E+00 0.14965620E+02</pdfrwt>
<totfact>-0.13161274E-13</totfact>
</mgrwt>
</event>
<event>
 4    1  0.5245809E-019  0.1490492E+02  0.7818608E-02  0.1870984E+00
         -2   -1    0    0    0  501 -0.00000000000E+00  0.00000000000E+00  0.11876749819E+03  0.11876749821E+03  0.25500000000E-02 0.  1.
          2   -1    0    0  501    0  0.00000000000E+00 -0.00000000000E+00 -0.46762556788E+00  0.46763252051E+00  0.25500000000E-02 0. -1.
         31    1    1    2    0    0  0.48946035310E-01  0.17981461727E+00  0.60855956599E+02  0.61310203952E+02  0.74470750000E+01 0.  1.
        -31    1    1    2    0    0 -0.48946035310E-01 -0.17981461727E+00  0.57443916020E+02  0.57924926783E+02  0.74470750000E+01 0. -1.
<mgrwt>
<rscale>  0 0.14904917E+02</rscale>
<asrwt>0</asrwt>
<pdfrwt beam="2">  1        2 0.99316644E+00 0.14904917E+02</pdfrwt>
<pdfrwt beam="1">  1       -2 0.98591949E+00 0.14904917E+02</pdfrwt>
<totfact> 0.42737234E-13</totfact>
</mgrwt>
</event>
<event>
 4    1  0.5245809E-019  0.1492951E+02  0.7818608E-02  0.1870227E+00
         -2   -1    0    0    0  501 -0.00000000000E+00  0.00000000000E+00  0.11903211903E+03  0.11903211906E+03  0.25500000000E-02 0.  1.
          2   -1    0    0  501    0  0.00000000000E+00 -0.00000000000E+00 -0.46812690125E+00  0.46813384643E+00  0.25500000000E-02 0. -1.
         31    1    1    2    0    0 -0.15033753492E+00 -0.50287168606E-01  0.63190991441E+02  0.63628495626E+02  0.74470750000E+01 0.  1.
        -31    1    1    2    0    0  0.15033753492E+00  0.50287168606E-01  0.55373000690E+02  0.55871757281E+02  0.74470750000E+01 0. -1.
<mgrwt>
<rscale>  0 0.14929508E+02</rscale>
<asrwt>0</asrwt>
<pdfrwt beam="2">  1        2 0.99423568E+00 0.14929508E+02</pdfrwt>
<pdfrwt beam="1">  1       -2 0.98811170E+00 0.14929508E+02</pdfrwt>
<totfact> 0.15219060E-13</totfact>
</mgrwt>
</event>
<event>
 4    1  0.5245809E-019  0.1494021E+02  0.7818608E-02  0.1869898E+00
          2   -1    0    0  501    0  0.00000000000E+00  0.00000000000E+00  0.11998499391E+03  0.11998499394E+03  0.25500000000E-02 0. -1.
         -2   -1    0    0    0  501 -0.00000000000E+00 -0.00000000000E+00 -0.46507526046E+00  0.46508225121E+00  0.25500000000E-02 0.  1.
         31    1    1    2    0    0  0.39090581956E+00 -0.40084478006E+00  0.58362043859E+02  0.58837917820E+02  0.74470750000E+01 0. -1.
        -31    1    1    2    0    0 -0.39090581956E+00  0.40084478006E+00  0.61157874795E+02  0.61612158373E+02  0.74470750000E+01 0. -1.
<mgrwt>
<rscale>  0 0.14940211E+02</rscale>
<asrwt>0</asrwt>
<pdfrwt beam="1">  1        2 0.99596550E+00 0.14940211E+02</pdfrwt>
<pdfrwt beam="2">  1       -2 0.98781028E+00 0.14940211E+02</pdfrwt>
<totfact> 0.14939733E-13</totfact>
</mgrwt>
</event>
<event>
 4    1  0.5245809E-019  0.1490946E+02  0.7818608E-02  0.1870844E+00
         -2   -1    0    0    0  501 -0.00000000000E+00  0.00000000000E+00  0.11842566459E+03  0.11842566462E+03  0.25500000000E-02 0.  1.
          2   -1    0    0  501    0  0.00000000000E+00 -0.00000000000E+00 -0.46926117208E+00  0.46926810048E+00  0.25500000000E-02 0. -1.
         31    1    1    2    0    0 -0.65585239511E-01  0.28355550106E+00  0.57612064591E+02  0.58092113214E+02  0.74470750000E+01 0. -1.
        -31    1    1    2    0    0  0.65585239511E-01 -0.28355550106E+00  0.60344338828E+02  0.60802819505E+02  0.74470750000E+01 0.  1.
<mgrwt>
<rscale>  0 0.14909457E+02</rscale>
<asrwt>0</asrwt>
<pdfrwt beam="2">  1        2 0.99661517E+00 0.14909457E+02</pdfrwt>
<pdfrwt beam="1">  1       -2 0.98310649E+00 0.14909457E+02</pdfrwt>
<totfact> 0.62152869E-13</totfact>
</mgrwt>
</event>
<event>
 4    1 -0.5245809E-019  0.1494721E+02  0.7818608E-02  0.1869684E+00
         -2   -1    0    0    0  501 -0.00000000000E+00  0.00000000000E+00  0.11964343941E+03  0.11964343944E+03  0.25500000000E-02 0.  1.
          2   -1    0    0  501    0  0.00000000000E+00 -0.00000000000E+00 -0.46683985318E+00  0.46684681751E+00  0.25500000000E-02 0. -1.
         31    1    1    2    0    0  0.35011781718E+00 -0.35739698859E-01  0.55397736135E+02  0.55897155158E+02  0.74470750000E+01 0. -1.
        -31    1    1    2    0    0 -0.35011781718E+00  0.35739698859E-01  0.63778863420E+02  0.64213131095E+02  0.74470750000E+01 0. -1.
<mgrwt>
<rscale>  0 0.14947207E+02</rscale>
<asrwt>0</asrwt>
<pdfrwt beam="2">  1        2 0.99153268E+00 0.14947207E+02</pdfrwt>
<pdfrwt beam="1">  1       -2 0.99315588E+00 0.14947207E+02</pdfrwt>
<totfact>-0.13967442E-13</totfact>
</mgrwt>
</event>
<event>
 4    1 -0.5245809E-019  0.1492018E+02  0.7818608E-02  0.1870514E+00
          2   -1    0    0  501    0  0.00000000000E+00  0.00000000000E+00  0.11833386267E+03  0.11833386270E+03  0.25500000000E-02 0.  1.
         -2   -1    0    0    0  501 -0.00000000000E+00 -0.00000000000E+00 -0.47030077411E+00  0.47030768718E+00  0.25500000000E-02 0. -1.
         31    1    1    2    0    0 -0.37493791594E+00 -0.28713516245E-01  0.57105735742E+02  0.57590497338E+02  0.74470750000E+01 0. -1.
        -31    1    1    2    0    0  0.37493791594E+00  0.28713516245E-01  0.60757826157E+02  0.61213673050E+02  0.74470750000E+01 0. -1.
<mgrwt>
<rscale>  0 0.14920177E+02</rscale>
<asrwt>0</asrwt>
<pdfrwt beam="1">  1        2 0.98235600E+00 0.14920177E+02</pdfrwt>
<pdfrwt beam="2">  1       -2 0.99881125E+00 0.14920177E+02</pdfrwt>
<totfact>-0.20536820E-13</totfact>
</mgrwt>
</event>
<event>
 4    1 -0.5245809E-019  0.1497944E+02  0.7818608E-02  0.1868696E+00
         -2   -1    0    0    0  501 -0.00000000000E+00  0.00000000000E+00  0.12002134240E+03  0.12002134243E+03  0.25500000000E-02 0. -1.
          2   -1    0    0  501    0  0.00000000000E+00 -0.00000000000E+00 -0.46737955972E+00  0.46738651601E+00  0.25500000000E-02 0.  1.
         31    1    1    2    0    0 -0.10553731757E+00 -0.71123839481E+00  0.56990378694E+02  0.57479380546E+02  0.74470750000E+01 0.  1.
        -31    1    1    2    0    0  0.10553731757E+00  0.71123839481E+00  0.62563584150E+02  0.63009348401E+02  0.74470750000E+01 0.  1.
<mgrwt>
<rscale>  0 0.14979445E+02</rscale>
<asrwt>0</asrwt>
<pdfrwt beam="2">  1        2 0.99268666E+00 0.14979445E+02</pdfrwt>
<pdfrwt beam="1">  1       -2 0.99628511E+00 0.14979445E+02</pdfrwt>
<totfact>-0.13062942E-13</totfact>
</mgrwt>
</event>
<event>
 4    1 -0.5245809E-019  0.1492136E+02  0.7818608E-02  0.1870478E+00
          2   -1    0    0  501    0  0.00000000000E+00  0.00000000000E+00  0.11830709822E+03  0.11830709825E+03  0.25500000000E-02 0. -1.
         -2   -1    0    0    0  501 -0.00000000000E+00 -0.00000000000E+00 -0.47048171689E+00  0.47048862731E+00  0.25500000000E-02 0.  1.
         31    1    1    2    0    0  0.11994912181E+00  0.34603445176E+00  0.61004514243E+02  0.61458472254E+02  0.74470750000E+01 0. -1.
        -31    1    1    2    0    0 -0.11994912181E+00 -0.34603445176E+00  0.56832102264E+02  0.57319114625E+02  0.74470750000E+01 0.  1.
<mgrwt>
<rscale>  0 0.14921359E+02</rscale>
<asrwt>0</asrwt>
<pdfrwt beam="1">  1        2 0.98213619E+00 0.14921359E+02</pdfrwt>
<pdfrwt beam="2">  1       -2 0.99919310E+00 0.14921359E+02</pdfrwt>
<totfact>-0.14930641E-13</totfact>
</mgrwt>
</event>
<event>
 4    1 -0.5245809E-019  0.1497670E+02  0.7818608E-02  0.1868780E+00
         -2   -1    0    0    0  501 -0.00000000000E+00  0.00000000000E+00  0.12019930492E+03  0.12019930495E+03  0.25500000000E-02 0.  1.
          2   -1    0    0  501    0  0.00000000000E+00 -0.00000000000E+00 -0.46651656403E+00  0.46652353319E+00  0.25500000000E-02 0. -1.
         31    1    1    2    0    0  0.55619009804E-01 -0.12571849542E+00  0.53638224610E+02  0.54152903560E+02  0.74470750000E+01 0. -1.
        -31    1    1    2    0    0 -0.55619009804E-01  0.12571849542E+00  0.66094563746E+02  0.66512924920E+02  0.74470750000E+01 0.  1.
<mgrwt>
<rscale>  0 0.14976700E+02</rscale>
<asrwt>0</asrwt>
<pdfrwt beam="2">  1        2 0.99086651E+00 0.14976700E+02</pdfrwt>
<pdfrwt beam="1">  1       -2 0.99774950E+00 0.14976700E+02</pdfrwt>
<totfact>-0.10782927E-13</totfact>
</mgrwt>
</event>
<event>
 4    1  0.5245809E-019  0.1489962E+02  0.7818608E-02  0.1871147E+00
         -2   -1    0    0    0  501 -0.00000000000E+00  0.00000000000E+00  0.11842637726E+03  0.11842637729E+03  0.25500000000E-02 0. -1.
          2   -1    0    0  501    0  0.00000000000E+00 -0.00000000000E+00 -0.46863911209E+00  0.46864604968E+00  0.25500000000E-02 0.  1.
         31    1    1    2    0    0  0.14109175809E+00  0.10991842845E+00  0.59724508834E+02  0.60187273327E+02  0.74470750000E+01 0.  1.
        -31    1    1    2    0    0 -0.14109175809E+00 -0.10991842845E+00  0.58233229314E+02  0.58707750011E+02  0.74470750000E+01 0.  1.
<mgrwt>
<rscale>  0 0.14899617E+02</rscale>
<asrwt>0</asrwt>
<pdfrwt beam="2">  1        2 0.99529930E+00 0.14899617E+02</pdfrwt>
<pdfrwt beam="1">  1       -2 0.98310724E+00 0.14899617E+02</pdfrwt>
<totfact> 0.75291908E-13</totfact>
</mgrwt>
</event>
<event>
 4    1 -0.5245809E-019  0.1497903E+02  0.7818608E-02  0.1868709E+00
          2   -1    0    0  501    0  0.00000000000E+00  0.00000000000E+00  0.12016792279E+03  0.12016792282E+03  0.25500000000E-02 0.  1.
         -2   -1    0    0    0  501 -0.00000000000E+00 -0.00000000000E+00 -0.46678368784E+00  0.46679065300E+00  0.25500000000E-02 0. -1.
         31    1    1    2    0    0 -0.22954017776E+00  0.27425235317E+00  0.54121661039E+02  0.54632783406E+02  0.74470750000E+01 0. -1.
        -31    1    1    2    0    0  0.22954017776E+00 -0.27425235317E+00  0.65579478065E+02  0.66001930065E+02  0.74470750000E+01 0.  1.
<mgrwt>
<rscale>  0 0.14979032E+02</rscale>
<asrwt>0</asrwt>
<pdfrwt beam="1">  1        2 0.99749221E+00 0.14979032E+02</pdfrwt>
<pdfrwt beam="2">  1       -2 0.99143067E+00 0.14979032E+02</pdfrwt>
<totfact>-0.38577548E-14</totfact>
</mgrwt>
</event>
<event>
 4    1 -0.5245809E-019  0.1491207E+02  0.7818608E-02  0.1870764E+00
         -2   -1    0    0    0  501 -0.00000000000E+00  0.00000000000E+00  0.12031920742E+03  0.12031920745E+03  0.25500000000E-02 0.  1.
          2   -1    0    0  501    0  0.00000000000E+00 -0.00000000000E+00 -0.46203808623E+00  0.46204512293E+00  0.25500000000E-02 0. -1.
         31    1    1    2    0    0  0.18471475211E+00  0.10684392863E+00  0.62331599029E+02  0.62775255465E+02  0.74470750000E+01 0.  1.
        -31    1    1    2    0    0 -0.18471475211E+00 -0.10684392863E+00  0.57525570308E+02  0.58005997108E+02  0.74470750000E+01 0. -1.
<mgrwt>
<rscale>  0 0.14912073E+02</rscale>
<asrwt>0</asrwt>
<pdfrwt beam="2">  1        2 0.98139468E+00 0.14912073E+02</pdfrwt>
<pdfrwt beam="1">  1       -2 0.99870390E+00 0.14912073E+02</pdfrwt>
<totfact>-0.26089359E-13</totfact>
</mgrwt>
</event>
<event>
 4    1  0.5245809E-019  0.1496673E+02  0.7818608E-02  0.1869086E+00
         -2   -1    0    0    0  501 -0.00000000000E+00  0.00000000000E+00  0.11905692760E+03  0.11905692763E+03  0.25500000000E-02 0. -1.
          2   -1    0    0  501    0  0.00000000000E+00 -0.00000000000E+00 -0.47036585831E+00  0.47037277044E+00  0.25500000000E-02 0.  1.
         31    1    1    2    0    0 -0.13042460391E+00 -0.64616011207E+00  0.61908919127E+02  0.62358702096E+02  0.74470750000E+01 0. -1.
        -31    1    1    2    0    0  0.13042460391E+00  0.64616011207E+00  0.56677642617E+02  0.57168598305E+02  0.74470750000E+01 0.  1.
<mgrwt>
<rscale>  0 0.14966727E+02</rscale>
<asrwt>0</asrwt>
<pdfrwt beam="2">  1        2 0.99897294E+00 0.14966727E+02</pdfrwt>
<pdfrwt beam="1">  1       -2 0.98833535E+00 0.14966727E+02</pdfrwt>
<totfact> 0.38700213E-14</totfact>
</mgrwt>
</event>
<event>
 4    1 -0.5245809E-019  0.1493281E+02  0.7818608E-02  0.1870126E+00
         -2   -1    0    0    0  501 -0.00000000000E+00  0.00000000000E+00  0.11965904433E+03  0.11965904436E+03  0.25500000000E-02 0.  1.
          2   -1    0    0  501    0  0.00000000000E+00 -0.00000000000E+00 -0.46588037308E+00  0.46588735175E+00  0.25500000000E-02 0. -1.
         31    1    1    2    0    0  0.28509273222E+00 -0.41811292367E+00  0.61040060989E+02  0.61494748295E+02  0.74470750000E+01 0.  1.
        -31    1    1    2    0    0 -0.28509273222E+00  0.41811292367E+00  0.58153102968E+02  0.58630183414E+02  0.74470750000E+01 0. -1.
<mgrwt>
<rscale>  0 0.14932812E+02</rscale>
<asrwt>0</asrwt>
<pdfrwt beam="2">  1        2 0.98950325E+00 0.14932812E+02</pdfrwt>
<pdfrwt beam="1">  1       -2 0.99327698E+00 0.14932812E+02</pdfrwt>
<totfact>-0.17032063E-13</totfact>
</mgrwt>
</event>
<event>
 4    1 -0.5245809E-019  0.1496720E+02  0.7818608E-02  0.1869071E+00
         -2   -1    0    0    0  501 -0.00000000000E+00  0.00000000000E+00  0.12003145017E+03  0.12003145020E+03  0.25500000000E-02 0. -1.
          2   -1    0    0  501    0  0.00000000000E+00 -0.00000000000E+00 -0.46657655088E+00  0.46658351914E+00  0.25500000000E-02 0.  1.
         31    1    1    2    0    0 -0.67871735915E+00  0.23476461996E+00  0.58397704164E+02  0.58875007850E+02  0.74470750000E+01 0. -1.
        -31    1    1    2    0    0  0.67871735915E+00 -0.23476461996E+00  0.61167169458E+02  0.61623025869E+02  0.74470750000E+01 0.  1.
<mgrwt>
<rscale>  0 0.14967202E+02</rscale>
<asrwt>0</asrwt>
<pdfrwt beam="2">  1        2 0.99098807E+00 0.14967202E+02</pdfrwt>
<pdfrwt beam="1">  1       -2 0.99636205E+00 0.14967202E+02</pdfrwt>
<totfact>-0.14680917E-13</totfact>
</mgrwt>
</event>
<event>
 4    1 -0.5245809E-019  0.1496074E+02  0.7818608E-02  0.1869269E+00
          2   -1    0    0  501    0  0.00000000000E+00  0.00000000000E+00  0.11961260680E+03  0.11961260683E+03  0.25500000000E-02 0.  1.
         -2   -1    0    0    0  501 -0.00000000000E+00 -0.00000000000E+00 -0.46780603571E+00  0.46781298566E+00  0.25500000000E-02 0. -1.
         31    1    1    2    0    0 -0.24208381314E+00  0.44405547532E+00  0.63514340486E+02  0.63951435975E+02  0.74470750000E+01 0. -1.
        -31    1    1    2    0    0  0.24208381314E+00 -0.44405547532E+00  0.55630460277E+02  0.56128983837E+02  0.74470750000E+01 0. -1.
<mgrwt>
<rscale>  0 0.14960738E+02</rscale>
<asrwt>0</asrwt>
<pdfrwt beam="1">  1        2 0.99290893E+00 0.14960738E+02</pdfrwt>
<pdfrwt beam="2">  1       -2 0.99357576E+00 0.14960738E+02</pdfrwt>
<totfact>-0.13366775E-13</totfact>
</mgrwt>
</event>
<event>
 4    1  0.5245809E-019  0.1491817E+02  0.7818608E-02  0.1870576E+00
          2   -1    0    0  501    0  0.00000000000E+00  0.00000000000E+00  0.12025105685E+03  0.12025105688E+03  0.25500000000E-02 0. -1.
         -2   -1    0    0    0  501 -0.00000000000E+00 -0.00000000000E+00 -0.46267828823E+00  0.46268531520E+00  0.25500000000E-02 0.  1.
         31    1    1    2    0    0 -0.38318615738E+00 -0.17826135404E+00  0.60064712027E+02  0.60526086654E+02  0.74470750000E+01 0.  1.
        -31    1    1    2    0    0  0.38318615738E+00  0.17826135404E+00  0.59723666536E+02  0.60187655539E+02  0.74470750000E+01 0. -1.
<mgrwt>
<rscale>  0 0.14918174E+02</rscale>
<asrwt>0</asrwt>
<pdfrwt beam="1">  1        2 0.99814568E+00 0.14918174E+02</pdfrwt>
<pdfrwt beam="2">  1       -2 0.98274714E+00 0.14918174E+02</pdfrwt>
<totfact> 0.43535289E-13</totfact>
</mgrwt>
</event>
<event>
 4    1 -0.5245809E-019  0.1492475E+02  0.7818608E-02  0.1870374E+00
          2   -1    0    0  501    0  0.00000000000E+00  0.00000000000E+00  0.11864360625E+03  0.11864360628E+03  0.25500000000E-02 0. -1.
         -2   -1    0    0    0  501 -0.00000000000E+00 -0.00000000000E+00 -0.46936035883E+00  0.46936728576E+00  0.25500000000E-02 0.  1.
         31    1    1    2    0    0 -0.40891871267E+00 -0.20779090385E+00  0.60148977683E+02  0.60609973057E+02  0.74470750000E+01 0. -1.
        -31    1    1    2    0    0  0.40891871267E+00  0.20779090385E+00  0.58025268212E+02  0.58503000511E+02  0.74470750000E+01 0.  1.
<mgrwt>
<rscale>  0 0.14924747E+02</rscale>
<asrwt>0</asrwt>
<pdfrwt beam="1">  1        2 0.98490940E+00 0.14924747E+02</pdfrwt>
<pdfrwt beam="2">  1       -2 0.99683222E+00 0.14924747E+02</pdfrwt>
<totfact>-0.29204784E-13</totfact>
</mgrwt>
</event>
<event>
 4    1 -0.5245809E-019  0.1501395E+02  0.7818608E-02  0.1867643E+00
         -2   -1    0    0    0  501 -0.00000000000E+00  0.00000000000E+00  0.12009168816E+03  0.12009168819E+03  0.25500000000E-02 0. -1.
          2   -1    0    0  501    0  0.00000000000E+00 -0.00000000000E+00 -0.46926025696E+00  0.46926718537E+00  0.25500000000E-02 0.  1.
         31    1    1    2    0    0  0.34628694321E+00  0.87630519089E+00  0.60526023494E+02  0.60989722671E+02  0.74470750000E+01 0. -1.
        -31    1    1    2    0    0 -0.34628694321E+00 -0.87630519089E+00  0.59096404407E+02  0.59571232699E+02  0.74470750000E+01 0. -1.
<mgrwt>
<rscale>  0 0.15013950E+02</rscale>
<asrwt>0</asrwt>
<pdfrwt beam="2">  1        2 0.99666781E+00 0.15013950E+02</pdfrwt>
<pdfrwt beam="1">  1       -2 0.99688233E+00 0.15013950E+02</pdfrwt>
<totfact>-0.77478245E-14</totfact>
</mgrwt>
</event>
<event>
 4    1 -0.5245809E-019  0.1489991E+02  0.7818608E-02  0.1871138E+00
          2   -1    0    0  501    0  0.00000000000E+00  0.00000000000E+00  0.11818081030E+03  0.11818081033E+03  0.25500000000E-02 0.  1.
         -2   -1    0    0    0  501 -0.00000000000E+00 -0.00000000000E+00 -0.46963153240E+00  0.46963845533E+00  0.25500000000E-02 0. -1.
         31    1    1    2    0    0  0.18232428799E+00  0.68121744920E-01  0.58290339006E+02  0.58764448693E+02  0.74470750000E+01 0. -1.
        -31    1    1    2    0    0 -0.18232428799E+00 -0.68121744920E-01  0.59420839766E+02  0.59886000095E+02  0.74470750000E+01 0.  1.
<mgrwt>
<rscale>  0 0.14899912E+02</rscale>
<asrwt>0</asrwt>
<pdfrwt beam="1">  1        2 0.98108493E+00 0.14899912E+02</pdfrwt>
<pdfrwt beam="2">  1       -2 0.99739046E+00 0.14899912E+02</pdfrwt>
<totfact>-0.48693354E-13</totfact>
</mgrwt>
</event>
<event>
 4    1 -0.5245809E-019  0.1500840E+02  0.7818608E-02  0.1867812E+00
          2   -1    0    0  501    0  0.00000000000E+00  0.00000000000E+00  0.12030795161E+03  0.12030795163E+03  0.25500000000E-02 0.  1.
         -2   -1    0    0    0  501 -0.00000000000E+00 -0.00000000000E+00 -0.46807055012E+00  0.46807749614E+00  0.25500000000E-02 0. -1.
         31    1    1    2    0    0 -0.54412413066E+00 -0.54340652643E+00  0.64044821161E+02  0.64480922802E+02  0.74470750000E+01 0.  1.
        -31    1    1    2    0    0  0.54412413066E+00  0.54340652643E+00  0.55795059894E+02  0.56295106327E+02  0.74470750000E+01 0. -1.
<mgrwt>
<rscale>  0 0.15008402E+02</rscale>
<asrwt>0</asrwt>
<pdfrwt beam="1">  1        2 0.99866071E+00 0.15008402E+02</pdfrwt>
<pdfrwt beam="2">  1       -2 0.99415776E+00 0.15008402E+02</pdfrwt>
<totfact>-0.46604983E-14</totfact>
</mgrwt>
</event>
<event>
 4    1  0.5245809E-019  0.1493413E+02  0.7818608E-02  0.1870085E+00
         -2   -1    0    0    0  501 -0.00000000000E+00  0.00000000000E+00  0.11856520105E+03  0.11856520107E+03  0.25500000000E-02 0.  1.
          2   -1    0    0  501    0  0.00000000000E+00 -0.00000000000E+00 -0.47026164959E+00  0.47026856324E+00  0.25500000000E-02 0. -1.
         31    1    1    2    0    0  0.28213528106E+00 -0.18890186679E+00  0.62456002244E+02  0.62899335661E+02  0.74470750000E+01 0.  1.
        -31    1    1    2    0    0 -0.28213528106E+00  0.18890186679E+00  0.55638937153E+02  0.56136133976E+02  0.74470750000E+01 0. -1.
<mgrwt>
<rscale>  0 0.14934133E+02</rscale>
<asrwt>0</asrwt>
<pdfrwt beam="2">  1        2 0.99873620E+00 0.14934133E+02</pdfrwt>
<pdfrwt beam="1">  1       -2 0.98426855E+00 0.14934133E+02</pdfrwt>
<totfact> 0.22216848E-13</totfact>
</mgrwt>
</event>
<event>
 4    1  0.5245809E-019  0.1492718E+02  0.7818608E-02  0.1870299E+00
          2   -1    0    0  501    0  0.00000000000E+00  0.00000000000E+00  0.12017055747E+03  0.12017055750E+03  0.25500000000E-02 0.  1.
         -2   -1    0    0    0  501 -0.00000000000E+00 -0.00000000000E+00 -0.46354728786E+00  0.46355430166E+00  0.25500000000E-02 0. -1.
         31    1    1    2    0    0 -0.57060513602E-03  0.31628251384E+00  0.56763454308E+02  0.57250752886E+02  0.74470750000E+01 0.  1.
        -31    1    1    2    0    0  0.57060513602E-03 -0.31628251384E+00  0.62943555877E+02  0.63383358916E+02  0.74470750000E+01 0.  1.
<mgrwt>
<rscale>  0 0.14927178E+02</rscale>
<asrwt>0</asrwt>
<pdfrwt beam="1">  1        2 0.99748724E+00 0.14927178E+02</pdfrwt>
<pdfrwt beam="2">  1       -2 0.98458328E+00 0.14927178E+02</pdfrwt>
<totfact> 0.35445235E-13</totfact>
</mgrwt>
</event>
<event>
 4    1 -0.5245809E-019  0.1499288E+02  0.7818608E-02  0.1868286E+00
         -2   -1    0    0    0  501 -0.00000000000E+00  0.00000000000E+00  0.11991465884E+03  0.11991465887E+03  0.25500000000E-02 0. -1.
          2   -1    0    0  501    0  0.00000000000E+00 -0.00000000000E+00 -0.46863493881E+00  0.46864187646E+00  0.25500000000E-02 0.  1.
         31    1    1    2    0    0 -0.93208278259E-01  0.52566439740E+00  0.54320728614E+02  0.54831427978E+02  0.74470750000E+01 0.  1.
        -31    1    1    2    0    0  0.93208278259E-01 -0.52566439740E+00  0.65125295290E+02  0.65551872769E+02  0.74470750000E+01 0.  1.
<mgrwt>
<rscale>  0 0.14992881E+02</rscale>
<asrwt>0</asrwt>
<pdfrwt beam="2">  1        2 0.99533916E+00 0.14992881E+02</pdfrwt>
<pdfrwt beam="1">  1       -2 0.99541336E+00 0.14992881E+02</pdfrwt>
<totfact>-0.11314162E-13</totfact>
</mgrwt>
</event>
<event>
 4    1 -0.5245809E-019  0.1500220E+02  0.7818608E-02  0.1868002E+00
         -2   -1    0    0    0  501 -0.00000000000E+00  0.00000000000E+00  0.11961575239E+03  0.11961575242E+03  0.25500000000E-02 0.  1.
          2   -1    0    0  501    0  0.00000000000E+00 -0.00000000000E+00 -0.47038998816E+00  0.47039689993E+00  0.25500000000E-02 0. -1.
         31    1    1    2    0    0 -0.35201958758E+00  0.74683843951E-02  0.52954641195E+02  0.53476882142E+02  0.74470750000E+01 0. -1.
        -31    1    1    2    0    0  0.35201958758E+00 -0.74683843951E-02  0.66190721211E+02  0.66609267179E+02  0.74470750000E+01 0.  1.
<mgrwt>
<rscale>  0 0.15002196E+02</rscale>
<asrwt>0</asrwt>
<pdfrwt beam="2">  1        2 0.99904235E+00 0.15002196E+02</pdfrwt>
<pdfrwt beam="1">  1       -2 0.99295630E+00 0.15002196E+02</pdfrwt>
<totfact>-0.30290124E-14</totfact>
</mgrwt>
</event>
<event>
 4    1 -0.5245809E-019  0.1491607E+02  0.7818608E-02  0.1870640E+00
          2   -1    0    0  501    0  0.00000000000E+00  0.00000000000E+00  0.11891444996E+03  0.11891444999E+03  0.25500000000E-02 0. -1.
         -2   -1    0    0    0  501 -0.00000000000E+00 -0.00000000000E+00 -0.46774714452E+00  0.46775409534E+00  0.25500000000E-02 0.  1.
         31    1    1    2    0    0  0.34182814363E+00 -0.21363156117E+00  0.58983248218E+02  0.59452880345E+02  0.74470750000E+01 0.  1.
        -31    1    1    2    0    0 -0.34182814363E+00  0.21363156117E+00  0.59463454596E+02  0.59929323736E+02  0.74470750000E+01 0.  1.
<mgrwt>
<rscale>  0 0.14916073E+02</rscale>
<asrwt>0</asrwt>
<pdfrwt beam="1">  1        2 0.98713559E+00 0.14916073E+02</pdfrwt>
<pdfrwt beam="2">  1       -2 0.99342845E+00 0.14916073E+02</pdfrwt>
<totfact>-0.23232928E-13</totfact>
</mgrwt>
</event>
<event>
 4    1  0.5245809E-019  0.1493053E+02  0.7818608E-02  0.1870196E+00
          2   -1    0    0  501    0  0.00000000000E+00  0.00000000000E+00  0.11999718807E+03  0.11999718810E+03  0.25500000000E-02 0. -1.
         -2   -1    0    0    0  501 -0.00000000000E+00 -0.00000000000E+00 -0.46442572673E+00  0.46443272726E+00  0.25500000000E-02 0.  1.
         31    1    1    2    0    0  0.44675799796E+00  0.18365058960E+00  0.61338286844E+02  0.61790595395E+02  0.74470750000E+01 0. -1.
        -31    1    1    2    0    0 -0.44675799796E+00 -0.18365058960E+00  0.58194475499E+02  0.58671025429E+02  0.74470750000E+01 0. -1.
<mgrwt>
<rscale>  0 0.14930533E+02</rscale>
<asrwt>0</asrwt>
<pdfrwt beam="1">  1        2 0.99606096E+00 0.14930533E+02</pdfrwt>
<pdfrwt beam="2">  1       -2 0.98643641E+00 0.14930533E+02</pdfrwt>
<totfact> 0.26848442E-13</totfact>
</mgrwt>
</event>
<event>
 4    1 -0.5245809E-019  0.1489935E+02  0.7818608E-02  0.1871156E+00
         -2   -1    0    0    0  501 -0.00000000000E+00  0.00000000000E+00  0.11994965377E+03  0.11994965379E+03  0.25500000000E-02 0. -1.
          2   -1    0    0  501    0  0.00000000000E+00 -0.00000000000E+00 -0.46267093675E+00  0.46267796383E+00  0.25500000000E-02 0.  1.
         31    1    1    2    0    0  0.43387761150E-01  0.17407393499E+00  0.59090266156E+02  0.59557960548E+02  0.74470750000E+01 0. -1.
        -31    1    1    2    0    0 -0.43387761150E-01 -0.17407393499E+00  0.60396716675E+02  0.60854371210E+02  0.74470750000E+01 0. -1.
<mgrwt>
<rscale>  0 0.14899348E+02</rscale>
<asrwt>0</asrwt>
<pdfrwt beam="2">  1        2 0.98272212E+00 0.14899348E+02</pdfrwt>
<pdfrwt beam="1">  1       -2 0.99565341E+00 0.14899348E+02</pdfrwt>
<totfact>-0.49165486E-13</totfact>
</mgrwt>
</event>
<event>
 4    1  0.5245809E-019  0.1495617E+02  0.7818608E-02  0.1869409E+00
         -2   -1    0    0    0  501 -0.00000000000E+00  0.00000000000E+00  0.11892957942E+03  0.11892957944E+03  0.25500000000E-02 0.  1.
          2   -1    0    0  501    0  0.00000000000E+00 -0.00000000000E+00 -0.47020532705E+00  0.47021224153E+00  0.25500000000E-02 0. -1.
         31    1    1    2    0    0  0.62137080371E+00  0.37353666672E-01  0.61420567864E+02  0.61873520829E+02  0.74470750000E+01 0.  1.
        -31    1    1    2    0    0 -0.62137080371E+00 -0.37353666672E-01  0.57038806227E+02  0.57526270858E+02  0.74470750000E+01 0.  1.
<mgrwt>
<rscale>  0 0.14956167E+02</rscale>
<asrwt>0</asrwt>
<pdfrwt beam="2">  1        2 0.99862914E+00 0.14956167E+02</pdfrwt>
<pdfrwt beam="1">  1       -2 0.98728102E+00 0.14956167E+02</pdfrwt>
<totfact> 0.87833972E-14</totfact>
</mgrwt>
</event>
<event>
 4    1 -0.5245809E-019  0.1491078E+02  0.7818608E-02  0.1870803E+00
          2   -1    0    0  501    0  0.00000000000E+00  0.00000000000E+00  0.11830598931E+03  0.11830598934E+03  0.25500000000E-02 0.  1.
         -2   -1    0    0    0  501 -0.00000000000E+00 -0.00000000000E+00 -0.46981916843E+00  0.46982608859E+00  0.25500000000E-02 0. -1.
         31    1    1    2    0    0  0.44703169733E-02  0.84818514732E-01  0.56196939545E+02  0.56688289394E+02  0.74470750000E+01 0. -1.
        -31    1    1    2    0    0 -0.44703169733E-02 -0.84818514732E-01  0.61639230599E+02  0.62087526035E+02  0.74470750000E+01 0.  1.
<mgrwt>
<rscale>  0 0.14910779E+02</rscale>
<asrwt>0</asrwt>
<pdfrwt beam="1">  1        2 0.98212155E+00 0.14910779E+02</pdfrwt>
<pdfrwt beam="2">  1       -2 0.99779156E+00 0.14910779E+02</pdfrwt>
<totfact>-0.36106394E-13</totfact>
</mgrwt>
</event>
<event>
 4    1 -0.5245809E-019  0.1498159E+02  0.7818608E-02  0.1868631E+00
          2   -1    0    0  501    0  0.00000000000E+00  0.00000000000E+00  0.11944632030E+03  0.11944632033E+03  0.25500000000E-02 0. -1.
         -2   -1    0    0    0  501 -0.00000000000E+00 -0.00000000000E+00 -0.46976427320E+00  0.46977119417E+00  0.25500000000E-02 0.  1.
         31    1    1    2    0    0 -0.33149944148E+00  0.57007830396E+00  0.55749153111E+02  0.56248216681E+02  0.74470750000E+01 0. -1.
        -31    1    1    2    0    0  0.33149944148E+00 -0.57007830396E+00  0.63227402919E+02  0.63667874844E+02  0.74470750000E+01 0. -1.
<mgrwt>
<rscale>  0 0.14981593E+02</rscale>
<asrwt>0</asrwt>
<pdfrwt beam="1">  1        2 0.99155015E+00 0.14981593E+02</pdfrwt>
<pdfrwt beam="2">  1       -2 0.99771310E+00 0.14981593E+02</pdfrwt>
<totfact>-0.10338304E-13</totfact>
</mgrwt>
</event>
<event>
 4    1 -0.5245809E-019  0.1493510E+02  0.7818608E-02  0.1870055E+00
         -2   -1    0    0    0  501 -0.00000000000E+00  0.00000000000E+00  0.11955231446E+03  0.11955231449E+03  0.25500000000E-02 0.  1.
          2   -1    0    0  501    0  0.00000000000E+00 -0.00000000000E+00 -0.46643935165E+00  0.46644632196E+00  0.25500000000E-02 0. -1.
         31    1    1    2    0    0 -0.68284876612E-01 -0.26063716466E+00  0.63420292287E+02  0.63856597109E+02  0.74470750000E+01 0.  1.
        -31    1    1    2    0    0  0.68284876612E-01  0.26063716466E+00  0.55665582825E+02  0.56162163704E+02  0.74470750000E+01 0. -1.
<mgrwt>
<rscale>  0 0.14935103E+02</rscale>
<asrwt>0</asrwt>
<pdfrwt beam="2">  1        2 0.99068243E+00 0.14935103E+02</pdfrwt>
<pdfrwt beam="1">  1       -2 0.99239909E+00 0.14935103E+02</pdfrwt>
<totfact>-0.12679815E-13</totfact>
</mgrwt>
</event>
<event>
 4    1 -0.5245809E-019  0.1495812E+02  0.7818608E-02  0.1869349E+00
          2   -1    0    0  501    0  0.00000000000E+00  0.00000000000E+00  0.11935579677E+03  0.11935579680E+03  0.25500000000E-02 0.  1.
         -2   -1    0    0    0  501 -0.00000000000E+00 -0.00000000000E+00 -0.46864864053E+00  0.46865557798E+00  0.25500000000E-02 0. -1.
         31    1    1    2    0    0  0.36988218693E+00  0.34879580116E+00  0.63191945541E+02  0.63631276733E+02  0.74470750000E+01 0.  1.
        -31    1    1    2    0    0 -0.36988218693E+00 -0.34879580116E+00  0.55695202587E+02  0.56193175640E+02  0.74470750000E+01 0.  1.
<mgrwt>
<rscale>  0 0.14958121E+02</rscale>
<asrwt>0</asrwt>
<pdfrwt beam="1">  1        2 0.99079241E+00 0.14958121E+02</pdfrwt>
<pdfrwt beam="2">  1       -2 0.99535000E+00 0.14958121E+02</pdfrwt>
<totfact>-0.16423232E-13</totfact>
</mgrwt>
</event>
<event>
 4    1  0.5245809E-019  0.1492260E+02  0.7818608E-02  0.1870439E+00
         -2   -1    0    0    0  501 -0.00000000000E+00  0.00000000000E+00  0.11903934643E+03  0.11903934646E+03  0.25500000000E-02 0.  1.
          2   -1    0    0  501    0  0.00000000000E+00 -0.00000000000E+00 -0.46766568190E+00  0.46767263393E+00  0.25500000000E-02 0. -1.
         31    1    1    2    0    0 -0.45638782528E+00 -0.32810387078E-01  0.58866504727E+02  0.59337455887E+02  0.74470750000E+01 0.  1.
        -31    1    1    2    0    0  0.45638782528E+00  0.32810387078E-01  0.59705176023E+02  0.60169563206E+02  0.74470750000E+01 0. -1.
<mgrwt>
<rscale>  0 0.14922605E+02</rscale>
<asrwt>0</asrwt>
<pdfrwt beam="2">  1        2 0.99326020E+00 0.14922605E+02</pdfrwt>
<pdfrwt beam="1">  1       -2 0.98816765E+00 0.14922605E+02</pdfrwt>
<totfact> 0.15875284E-13</totfact>
</mgrwt>
</event>
<event>
 4    1 -0.5245809E-019  0.1495846E+02  0.7818608E-02  0.1869339E+00
         -2   -1    0    0    0  501 -0.00000000000E+00  0.00000000000E+00  0.11955035696E+03  0.11955035699E+03  0.25500000000E-02 0. -1.
          2   -1    0    0  501    0  0.00000000000E+00 -0.00000000000E+00 -0.46790699646E+00  0.46791394491E+00  0.25500000000E-02 0.  1.
         31    1    1    2    0    0 -0.48367084659E+00  0.12244967066E+00  0.55684882997E+02  0.56182862617E+02  0.74470750000E+01 0.  1.
        -31    1    1    2    0    0  0.48367084659E+00 -0.12244967066E+00  0.63397566969E+02  0.63835408318E+02  0.74470750000E+01 0. -1.
<mgrwt>
<rscale>  0 0.14958458E+02</rscale>
<asrwt>0</asrwt>
<pdfrwt beam="2">  1        2 0.99378734E+00 0.14958458E+02</pdfrwt>
<pdfrwt beam="1">  1       -2 0.99239504E+00 0.14958458E+02</pdfrwt>
<totfact>-0.10018568E-13</totfact>
</mgrwt>
</event>
<event>
 4    1  0.5245809E-019  0.1495837E+02  0.7818608E-02  0.1869341E+00
         -2   -1    0    0    0  501 -0.00000000000E+00  0.00000000000E+00  0.11881557098E+03  0.11881557101E+03  0.25500000000E-02 0. -1.
          2   -1    0    0  501    0  0.00000000000E+00 -0.00000000000E+00 -0.47079527455E+00  0.47080218037E+00  0.25500000000E-02 0.  1.
         31    1    1    2    0    0 -0.12050897976E+00  0.66300201709E+00  0.57906397682E+02  0.58387189628E+02  0.74470750000E+01 0.  1.
        -31    1    1    2    0    0  0.12050897976E+00 -0.66300201709E+00  0.60438378025E+02  0.60899183561E+02  0.74470750000E+01 0.  1.
<mgrwt>
<rscale>  0 0.14958372E+02</rscale>
<asrwt>0</asrwt>
<pdfrwt beam="2">  1        2 0.99987334E+00 0.14958372E+02</pdfrwt>
<pdfrwt beam="1">  1       -2 0.98634319E+00 0.14958372E+02</pdfrwt>
<totfact> 0.13553142E-14</totfact>
</mgrwt>
</event>
<event>
 4    1  0.5245809E-019  0.1491235E+02  0.7818608E-02  0.1870755E+00
         -2   -1    0    0    0  501 -0.00000000000E+00  0.00000000000E+00  0.11816197614E+03  0.11816197617E+03  0.25500000000E-02 0.  1.
          2   -1    0    0  501    0  0.00000000000E+00 -0.00000000000E+00 -0.47049071203E+00  0.47049762232E+00  0.25500000000E-02 0. -1.
         31    1    1    2    0    0  0.82110648097E-01 -0.12016278165E+00  0.61536669760E+02  0.61985819607E+02  0.74470750000E+01 0.  1.
        -31    1    1    2    0    0 -0.82110648097E-01  0.12016278165E+00  0.56154815670E+02  0.56646654184E+02  0.74470750000E+01 0. -1.
<mgrwt>
<rscale>  0 0.14912347E+02</rscale>
<asrwt>0</asrwt>
<pdfrwt beam="2">  1        2 0.99920727E+00 0.14912347E+02</pdfrwt>
<pdfrwt beam="1">  1       -2 0.98093630E+00 0.14912347E+02</pdfrwt>
<totfact> 0.29889021E-13</totfact>
</mgrwt>
</event>
<event>
 4    1  0.5245809E-019  0.1491853E+02  0.7818608E-02  0.1870565E+00
          2   -1    0    0  501    0  0.00000000000E+00  0.00000000000E+00  0.11982301758E+03  0.11982301761E+03  0.25500000000E-02 0.  1.
         -2   -1    0    0    0  501 -0.00000000000E+00 -0.00000000000E+00 -0.46435311402E+00  0.46436011565E+00  0.25500000000E-02 0. -1.
         31    1    1    2    0    0  0.25600533156E+00 -0.28085228906E+00  0.61235947584E+02  0.61688285917E+02  0.74470750000E+01 0.  1.
        -31    1    1    2    0    0 -0.25600533156E+00  0.28085228906E+00  0.58122716886E+02  0.58599091810E+02  0.74470750000E+01 0. -1.
<mgrwt>
<rscale>  0 0.14918527E+02</rscale>
<asrwt>0</asrwt>
<pdfrwt beam="1">  1        2 0.99462020E+00 0.14918527E+02</pdfrwt>
<pdfrwt beam="2">  1       -2 0.98627725E+00 0.14918527E+02</pdfrwt>
<totfact> 0.33646705E-13</totfact>
</mgrwt>
</event>
<event>
 4    1  0.5245809E-019  0.1490178E+02  0.7818608E-02  0.1871081E+00
          2   -1    0    0  501    0  0.00000000000E+00  0.00000000000E+00  0.11974716067E+03  0.11974716070E+03  0.25500000000E-02 0.  1.
         -2   -1    0    0    0  501 -0.00000000000E+00 -0.00000000000E+00 -0.46360476994E+00  0.46361178287E+00  0.25500000000E-02 0. -1.
         31    1    1    2    0    0 -0.65921641895E-02  0.23013556528E+00  0.60142062498E+02  0.60601811965E+02  0.74470750000E+01 0.  1.
        -31    1    1    2    0    0  0.65921641895E-02 -0.23013556528E+00  0.59141493401E+02  0.59608960514E+02  0.74470750000E+01 0. -1.
<mgrwt>
<rscale>  0 0.14901782E+02</rscale>
<asrwt>0</asrwt>
<pdfrwt beam="1">  1        2 0.99398677E+00 0.14901782E+02</pdfrwt>
<pdfrwt beam="2">  1       -2 0.98469152E+00 0.14901782E+02</pdfrwt>
<totfact> 0.57870731E-13</totfact>
</mgrwt>
</event>
<event>
 4    1  0.5245809E-019  0.1490768E+02  0.7818608E-02  0.1870899E+00
          2   -1    0    0  501    0  0.00000000000E+00  0.00000000000E+00  0.11986385404E+03  0.11986385406E+03  0.25500000000E-02 0. -1.
         -2   -1    0    0    0  501 -0.00000000000E+00 -0.00000000000E+00 -0.46351996077E+00  0.46352697497E+00  0.25500000000E-02 0.  1.
         31    1    1    2    0    0  0.29091789695E+00  0.16716556434E-01  0.58683226991E+02  0.59154585357E+02  0.74470750000E+01 0.  1.
        -31    1    1    2    0    0 -0.29091789695E+00 -0.16716556434E-01  0.60717107085E+02  0.61172795682E+02  0.74470750000E+01 0.  1.
<mgrwt>
<rscale>  0 0.14907678E+02</rscale>
<asrwt>0</asrwt>
<pdfrwt beam="1">  1        2 0.99495098E+00 0.14907678E+02</pdfrwt>
<pdfrwt beam="2">  1       -2 0.98451578E+00 0.14907678E+02</pdfrwt>
<totfact> 0.55610826E-13</totfact>
</mgrwt>
</event>
<event>
 4    1 -0.5245809E-019  0.1491826E+02  0.7818608E-02  0.1870573E+00
         -2   -1    0    0    0  501 -0.00000000000E+00  0.00000000000E+00  0.12026239503E+03  0.12026239506E+03  0.25500000000E-02 0. -1.
          2   -1    0    0  501    0  0.00000000000E+00 -0.00000000000E+00 -0.46264030957E+00  0.46264733711E+00  0.25500000000E-02 0.  1.
         31    1    1    2    0    0 -0.16011912029E+00  0.38732629663E+00  0.60416251185E+02  0.60874937315E+02  0.74470750000E+01 0. -1.
        -31    1    1    2    0    0  0.16011912029E+00 -0.38732629663E+00  0.59383503535E+02  0.59850105078E+02  0.74470750000E+01 0.  1.
<mgrwt>
<rscale>  0 0.14918265E+02</rscale>
<asrwt>0</asrwt>
<pdfrwt beam="2">  1        2 0.98266714E+00 0.14918265E+02</pdfrwt>
<pdfrwt beam="1">  1       -2 0.99823912E+00 0.14918265E+02</pdfrwt>
<totfact>-0.27422830E-13</totfact>
</mgrwt>
</event>
<event>
 4    1 -0.5245809E-019  0.1491819E+02  0.7818608E-02  0.1870575E+00
         -2   -1    0    0    0  501 -0.00000000000E+00  0.00000000000E+00  0.11957233712E+03  0.11957233714E+03  0.25500000000E-02 0. -1.
          2   -1    0    0  501    0  0.00000000000E+00 -0.00000000000E+00 -0.46530530041E+00  0.46531228770E+00  0.25500000000E-02 0.  1.
         31    1    1    2    0    0  0.66620915974E-01  0.36545476857E+00  0.57921432478E+02  0.58399394362E+02  0.74470750000E+01 0.  1.
        -31    1    1    2    0    0 -0.66620915974E-01 -0.36545476857E+00  0.61185599338E+02  0.61638255069E+02  0.74470750000E+01 0.  1.
<mgrwt>
<rscale>  0 0.14918185E+02</rscale>
<asrwt>0</asrwt>
<pdfrwt beam="2">  1        2 0.98828380E+00 0.14918185E+02</pdfrwt>
<pdfrwt beam="1">  1       -2 0.99255527E+00 0.14918185E+02</pdfrwt>
<totfact>-0.16976136E-13</totfact>
</mgrwt>
</event>
<event>
 4    1  0.5245809E-019  0.1489652E+02  0.7818608E-02  0.1871243E+00
         -2   -1    0    0    0  501 -0.00000000000E+00  0.00000000000E+00  0.11836302204E+03  0.11836302207E+03  0.25500000000E-02 0. -1.
          2   -1    0    0  501    0  0.00000000000E+00 -0.00000000000E+00 -0.46869486735E+00  0.46870180412E+00  0.25500000000E-02 0.  1.
         31    1    1    2    0    0 -0.99900292892E-01  0.99970941490E-02  0.58254086055E+02  0.58728251704E+02  0.74470750000E+01 0.  1.
        -31    1    1    2    0    0  0.99900292892E-01 -0.99970941490E-02  0.59640241115E+02  0.60103472165E+02  0.74470750000E+01 0. -1.
<mgrwt>
<rscale>  0 0.14896517E+02</rscale>
<asrwt>0</asrwt>
<pdfrwt beam="2">  1        2 0.99541514E+00 0.14896517E+02</pdfrwt>
<pdfrwt beam="1">  1       -2 0.98258384E+00 0.14896517E+02</pdfrwt>
<totfact> 0.83195458E-13</totfact>
</mgrwt>
</event>
<event>
 4    1 -0.5245809E-019  0.1490003E+02  0.7818608E-02  0.1871134E+00
         -2   -1    0    0    0  501 -0.00000000000E+00  0.00000000000E+00  0.11992192380E+03  0.11992192383E+03  0.25500000000E-02 0.  1.
          2   -1    0    0  501    0  0.00000000000E+00 -0.00000000000E+00 -0.46282057805E+00  0.46282760286E+00  0.25500000000E-02 0. -1.
         31    1    1    2    0    0 -0.12438776661E+00  0.10399073453E+00  0.60799775841E+02  0.61254370903E+02  0.74470750000E+01 0.  1.
        -31    1    1    2    0    0  0.12438776661E+00 -0.10399073453E+00  0.58659327384E+02  0.59130380529E+02  0.74470750000E+01 0. -1.
<mgrwt>
<rscale>  0 0.14900035E+02</rscale>
<asrwt>0</asrwt>
<pdfrwt beam="2">  1        2 0.98303786E+00 0.14900035E+02</pdfrwt>
<pdfrwt beam="1">  1       -2 0.99542535E+00 0.14900035E+02</pdfrwt>
<totfact>-0.47322461E-13</totfact>
</mgrwt>
</event>
<event>
 4    1 -0.5245809E-019  0.1492932E+02  0.7818608E-02  0.1870233E+00
         -2   -1    0    0    0  501 -0.00000000000E+00  0.00000000000E+00  0.11955893222E+03  0.11955893224E+03  0.25500000000E-02 0. -1.
          2   -1    0    0  501    0  0.00000000000E+00 -0.00000000000E+00 -0.46605257768E+00  0.46605955378E+00  0.25500000000E-02 0.  1.
         31    1    1    2    0    0  0.18872089989E+00 -0.46539643820E+00  0.60351734042E+02  0.60811536219E+02  0.74470750000E+01 0. -1.
        -31    1    1    2    0    0 -0.18872089989E+00  0.46539643820E+00  0.58741145597E+02  0.59213455578E+02  0.74470750000E+01 0.  1.
<mgrwt>
<rscale>  0 0.14929323E+02</rscale>
<asrwt>0</asrwt>
<pdfrwt beam="2">  1        2 0.98986437E+00 0.14929323E+02</pdfrwt>
<pdfrwt beam="1">  1       -2 0.99245061E+00 0.14929323E+02</pdfrwt>
<totfact>-0.13865935E-13</totfact>
</mgrwt>
</event>
<event>
 4    1 -0.5245809E-019  0.1495033E+02  0.7818608E-02  0.1869588E+00
          2   -1    0    0  501    0  0.00000000000E+00  0.00000000000E+00  0.11946088490E+03  0.11946088493E+03  0.25500000000E-02 0.  1.
         -2   -1    0    0    0  501 -0.00000000000E+00 -0.00000000000E+00 -0.46774853469E+00  0.46775548549E+00  0.25500000000E-02 0. -1.
         31    1    1    2    0    0 -0.42490484605E+00  0.11862970655E+00  0.55695474887E+02  0.56192877361E+02  0.74470750000E+01 0. -1.
        -31    1    1    2    0    0  0.42490484605E+00 -0.11862970655E+00  0.63297661477E+02  0.63735763051E+02  0.74470750000E+01 0.  1.
<mgrwt>
<rscale>  0 0.14950327E+02</rscale>
<asrwt>0</asrwt>
<pdfrwt beam="1">  1        2 0.99165391E+00 0.14950327E+02</pdfrwt>
<pdfrwt beam="2">  1       -2 0.99344920E+00 0.14950327E+02</pdfrwt>
<totfact>-0.14427120E-13</totfact>
</mgrwt>
</event>
<event>
 4    1 -0.5245809E-019  0.1492301E+02  0.7818608E-02  0.1870427E+00
         -2   -1    0    0    0  501 -0.00000000000E+00  0.00000000000E+00  0.11991214225E+03  0.11991214228E+03  0.25500000000E-02 0.  1.
          2   -1    0    0  501    0  0.00000000000E+00 -0.00000000000E+00 -0.46428675526E+00  0.46429375789E+00  0.25500000000E-02 0. -1.
         31    1    1    2    0    0 -0.45486244003E-01  0.96598460338E-01  0.56083118492E+02  0.56575493865E+02  0.74470750000E+01 0.  1.
        -31    1    1    2    0    0  0.45486244003E-01 -0.96598460338E-01  0.63364737006E+02  0.63800942173E+02  0.74470750000E+01 0.  1.
<mgrwt>
<rscale>  0 0.14923008E+02</rscale>
<asrwt>0</asrwt>
<pdfrwt beam="2">  1        2 0.98613968E+00 0.14923008E+02</pdfrwt>
<pdfrwt beam="1">  1       -2 0.99535660E+00 0.14923008E+02</pdfrwt>
<totfact>-0.28635652E-13</totfact>
</mgrwt>
</event>
<event>
 4    1 -0.5245809E-019  0.1499494E+02  0.7818608E-02  0.1868223E+00
          2   -1    0    0  501    0  0.00000000000E+00  0.00000000000E+00  0.12021885864E+03  0.12021885866E+03  0.25500000000E-02 0. -1.
         -2   -1    0    0    0  501 -0.00000000000E+00 -0.00000000000E+00 -0.46757756853E+00  0.46758452187E+00  0.25500000000E-02 0.  1.
         31    1    1    2    0    0  0.28341226388E+00 -0.73316937652E+00  0.62835871530E+02  0.63280514670E+02  0.74470750000E+01 0.  1.
        -31    1    1    2    0    0 -0.28341226388E+00  0.73316937652E+00  0.56915409539E+02  0.57405928517E+02  0.74470750000E+01 0. -1.
<mgrwt>
<rscale>  0 0.14994941E+02</rscale>
<asrwt>0</asrwt>
<pdfrwt beam="1">  1        2 0.99791995E+00 0.14994941E+02</pdfrwt>
<pdfrwt beam="2">  1       -2 0.99311191E+00 0.14994941E+02</pdfrwt>
<totfact>-0.59732496E-14</totfact>
</mgrwt>
</event>
<event>
 4    1 -0.5245809E-019  0.1496720E+02  0.7818608E-02  0.1869071E+00
         -2   -1    0    0    0  501 -0.00000000000E+00  0.00000000000E+00  0.11987728182E+03  0.11987728185E+03  0.25500000000E-02 0. -1.
          2   -1    0    0  501    0  0.00000000000E+00 -0.00000000000E+00 -0.46717626780E+00  0.46718322711E+00  0.25500000000E-02 0.  1.
         31    1    1    2    0    0  0.62408996510E-01  0.67822796426E+00  0.57410643252E+02  0.57895636905E+02  0.74470750000E+01 0.  1.
        -31    1    1    2    0    0 -0.62408996510E-01 -0.67822796426E+00  0.61999462304E+02  0.62448828173E+02  0.74470750000E+01 0. -1.
<mgrwt>
<rscale>  0 0.14967196E+02</rscale>
<asrwt>0</asrwt>
<pdfrwt beam="2">  1        2 0.99225194E+00 0.14967196E+02</pdfrwt>
<pdfrwt beam="1">  1       -2 0.99509224E+00 0.14967196E+02</pdfrwt>
<totfact>-0.14825169E-13</totfact>
</mgrwt>
</event>
<event>
 4    1 -0.5245809E-019  0.1491184E+02  0.7818608E-02  0.1870771E+00
         -2   -1    0    0    0  501 -0.00000000000E+00  0.00000000000E+00  0.12026627773E+03  0.12026627776E+03  0.25500000000E-02 0. -1.
          2   -1    0    0  501    0  0.00000000000E+00 -0.00000000000E+00 -0.46222717547E+00  0.46223420929E+00  0.25500000000E-02 0.  1.
         31    1    1    2    0    0  0.22440692541E+00 -0.12714496510E+00  0.57832865548E+02  0.58310940550E+02  0.74470750000E+01 0.  1.
        -31    1    1    2    0    0 -0.22440692541E+00  0.12714496510E+00  0.61971185011E+02  0.62417571420E+02  0.74470750000E+01 0. -1.
<mgrwt>
<rscale>  0 0.14911843E+02</rscale>
<asrwt>0</asrwt>
<pdfrwt beam="2">  1        2 0.98179312E+00 0.14911843E+02</pdfrwt>
<pdfrwt beam="1">  1       -2 0.99826781E+00 0.14911843E+02</pdfrwt>
<totfact>-0.31353061E-13</totfact>
</mgrwt>
</event>
<event>
 4    1 -0.5245809E-019  0.1499613E+02  0.7818608E-02  0.1868187E+00
         -2   -1    0    0    0  501 -0.00000000000E+00  0.00000000000E+00  0.12022620051E+03  0.12022620054E+03  0.25500000000E-02 0.  1.
          2   -1    0    0  501    0  0.00000000000E+00 -0.00000000000E+00 -0.46762305374E+00  0.46763000640E+00  0.25500000000E-02 0. -1.
         31    1    1    2    0    0  0.87574336111E-01 -0.83354660894E+00  0.61843625417E+02  0.62296030371E+02  0.74470750000E+01 0.  1.
        -31    1    1    2    0    0 -0.87574336111E-01  0.83354660894E+00  0.57914952040E+02  0.58397800173E+02  0.74470750000E+01 0.  1.
<mgrwt>
<rscale>  0 0.14996128E+02</rscale>
<asrwt>0</asrwt>
<pdfrwt beam="2">  1        2 0.99320838E+00 0.14996128E+02</pdfrwt>
<pdfrwt beam="1">  1       -2 0.99798104E+00 0.14996128E+02</pdfrwt>
<totfact>-0.83117493E-14</totfact>
</mgrwt>
</event>
<event>
 4    1 -0.5245809E-019  0.1489873E+02  0.7818608E-02  0.1871174E+00
         -2   -1    0    0    0  501 -0.00000000000E+00  0.00000000000E+00  0.12009743113E+03  0.12009743116E+03  0.25500000000E-02 0.  1.
          2   -1    0    0  501    0  0.00000000000E+00 -0.00000000000E+00 -0.46206353661E+00  0.46207057293E+00  0.25500000000E-02 0. -1.
         31    1    1    2    0    0 -0.17476187118E+00  0.47486065886E-01  0.59520714094E+02  0.59985057547E+02  0.74470750000E+01 0. -1.
        -31    1    1    2    0    0  0.17476187118E+00 -0.47486065886E-01  0.60114653503E+02  0.60574444187E+02  0.74470750000E+01 0. -1.
<mgrwt>
<rscale>  0 0.14898734E+02</rscale>
<asrwt>0</asrwt>
<pdfrwt beam="2">  1        2 0.98144160E+00 0.14898734E+02</pdfrwt>
<pdfrwt beam="1">  1       -2 0.99687031E+00 0.14898734E+02</pdfrwt>
<totfact>-0.51835728E-13</totfact>
</mgrwt>
</event>
<event>
 4    1 -0.5245809E-019  0.1495491E+02  0.7818608E-02  0.1869448E+00
          2   -1    0    0  501    0  0.00000000000E+00  0.00000000000E+00  0.11949093748E+03  0.11949093750E+03  0.25500000000E-02 0. -1.
         -2   -1    0    0    0  501 -0.00000000000E+00 -0.00000000000E+00 -0.46791736573E+00  0.46792431403E+00  0.25500000000E-02 0.  1.
         31    1    1    2    0    0  0.48276562681E+00  0.44935822341E+00  0.58423687813E+02  0.58900095155E+02  0.74470750000E+01 0. -1.
        -31    1    1    2    0    0 -0.48276562681E+00 -0.44935822341E+00  0.60599332296E+02  0.61058766662E+02  0.74470750000E+01 0. -1.
<mgrwt>
<rscale>  0 0.14954906E+02</rscale>
<asrwt>0</asrwt>
<pdfrwt beam="1">  1        2 0.99190380E+00 0.14954906E+02</pdfrwt>
<pdfrwt beam="2">  1       -2 0.99380735E+00 0.14954906E+02</pdfrwt>
<totfact>-0.14699524E-13</totfact>
</mgrwt>
</event>
<event>
 4    1  0.5245809E-019  0.1492161E+02  0.7818608E-02  0.1870470E+00
          2   -1    0    0  501    0  0.00000000000E+00  0.00000000000E+00  0.11975977422E+03  0.11975977425E+03  0.25500000000E-02 0.  1.
         -2   -1    0    0    0  501 -0.00000000000E+00 -0.00000000000E+00 -0.46479039495E+00  0.46479738998E+00  0.25500000000E-02 0. -1.
         31    1    1    2    0    0  0.13139157888E+00 -0.63506427979E-01  0.56197105433E+02  0.56688578055E+02  0.74470750000E+01 0. -1.
        -31    1    1    2    0    0 -0.13139157888E+00  0.63506427979E-01  0.63097878391E+02  0.63535993581E+02  0.74470750000E+01 0.  1.
<mgrwt>
<rscale>  0 0.14921610E+02</rscale>
<asrwt>0</asrwt>
<pdfrwt beam="1">  1        2 0.99410088E+00 0.14921610E+02</pdfrwt>
<pdfrwt beam="2">  1       -2 0.98720041E+00 0.14921610E+02</pdfrwt>
<totfact> 0.24491578E-13</totfact>
</mgrwt>
</event>
<event>
 4    1 -0.5245809E-019  0.1491308E+02  0.7818608E-02  0.1870732E+00
         -2   -1    0    0    0  501 -0.00000000000E+00  0.00000000000E+00  0.11992687248E+03  0.11992687251E+03  0.25500000000E-02 0.  1.
          2   -1    0    0  501    0  0.00000000000E+00 -0.00000000000E+00 -0.46361251885E+00  0.46361953165E+00  0.25500000000E-02 0. -1.
         31    1    1    2    0    0  0.37425498258E+00  0.29150974245E-01  0.59623150456E+02  0.60087601991E+02  0.74470750000E+01 0.  1.
        -31    1    1    2    0    0 -0.37425498258E+00 -0.29150974245E-01  0.59840109504E+02  0.60302890048E+02  0.74470750000E+01 0.  1.
<mgrwt>
<rscale>  0 0.14913085E+02</rscale>
<asrwt>0</asrwt>
<pdfrwt beam="2">  1        2 0.98471361E+00 0.14913085E+02</pdfrwt>
<pdfrwt beam="1">  1       -2 0.99547282E+00 0.14913085E+02</pdfrwt>
<totfact>-0.35671846E-13</totfact>
</mgrwt>
</event>
<event>
 4    1  0.5245809E-019  0.1489605E+02  0.7818608E-02  0.1871257E+00
         -2   -1    0    0    0  501 -0.00000000000E+00  0.00000000000E+00  0.11876872624E+03  0.11876872627E+03  0.25500000000E-02 0. -1.
          2   -1    0    0  501    0  0.00000000000E+00 -0.00000000000E+00 -0.46706476198E+00  0.46707172295E+00  0.25500000000E-02 0.  1.
         31    1    1    2    0    0  0.59549033787E-01 -0.78856013850E-01  0.59682578694E+02  0.60145481044E+02  0.74470750000E+01 0.  1.
        -31    1    1    2    0    0 -0.59549033787E-01  0.78856013850E-01  0.58619082787E+02  0.59090316949E+02  0.74470750000E+01 0.  1.
<mgrwt>
<rscale>  0 0.14896054E+02</rscale>
<asrwt>0</asrwt>
<pdfrwt beam="2">  1        2 0.99198010E+00 0.14896054E+02</pdfrwt>
<pdfrwt beam="1">  1       -2 0.98592500E+00 0.14896054E+02</pdfrwt>
<totfact> 0.46469168E-13</totfact>
</mgrwt>
</event>
<event>
 4    1 -0.5245809E-019  0.1499947E+02  0.7818608E-02  0.1868085E+00
         -2   -1    0    0    0  501 -0.00000000000E+00  0.00000000000E+00  0.11987240767E+03  0.11987240770E+03  0.25500000000E-02 0. -1.
          2   -1    0    0  501    0  0.00000000000E+00 -0.00000000000E+00 -0.46921234774E+00  0.46921927686E+00  0.25500000000E-02 0.  1.
         31    1    1    2    0    0 -0.11278925864E+00 -0.87854995231E+00  0.60105541240E+02  0.60571607088E+02  0.74470750000E+01 0.  1.
        -31    1    1    2    0    0  0.11278925864E+00  0.87854995231E+00  0.59297654084E+02  0.59770019887E+02  0.74470750000E+01 0.  1.
<mgrwt>
<rscale>  0 0.14999471E+02</rscale>
<asrwt>0</asrwt>
<pdfrwt beam="2">  1        2 0.99655936E+00 0.14999471E+02</pdfrwt>
<pdfrwt beam="1">  1       -2 0.99506877E+00 0.14999471E+02</pdfrwt>
<totfact>-0.96133455E-14</totfact>
</mgrwt>
</event>
<event>
 4    1  0.5245809E-019  0.1489672E+02  0.7818608E-02  0.1871237E+00
          2   -1    0    0  501    0  0.00000000000E+00  0.00000000000E+00  0.11964347414E+03  0.11964347417E+03  0.25500000000E-02 0.  1.
         -2   -1    0    0    0  501 -0.00000000000E+00 -0.00000000000E+00 -0.46369143648E+00  0.46369844810E+00  0.25500000000E-02 0. -1.
         31    1    1    2    0    0  0.12362372588E+00  0.59671866880E-01  0.59448511481E+02  0.59913298081E+02  0.74470750000E+01 0. -1.
        -31    1    1    2    0    0 -0.12362372588E+00 -0.59671866880E-01  0.59731271223E+02  0.60193874534E+02  0.74470750000E+01 0. -1.
<mgrwt>
<rscale>  0 0.14896721E+02</rscale>
<asrwt>0</asrwt>
<pdfrwt beam="1">  1        2 0.99313014E+00 0.14896721E+02</pdfrwt>
<pdfrwt beam="2">  1       -2 0.98487160E+00 0.14896721E+02</pdfrwt>
<totfact> 0.58790010E-13</totfact>
</mgrwt>
</event>
<event>
 4    1 -0.5245809E-019  0.1492320E+02  0.7818608E-02  0.1870421E+00
          2   -1    0    0  501    0  0.00000000000E+00  0.00000000000E+00  0.11889907656E+03  0.11889907658E+03  0.25500000000E-02 0. -1.
         -2   -1    0    0    0  501 -0.00000000000E+00 -0.00000000000E+00 -0.46825445496E+00  0.46826139825E+00  0.25500000000E-02 0.  1.
         31    1    1    2    0    0  0.93083050451E-01  0.38805997800E+00  0.61129398081E+02  0.61582639524E+02  0.74470750000E+01 0. -1.
        -31    1    1    2    0    0 -0.93083050451E-01 -0.38805997800E+00  0.57301424021E+02  0.57784698458E+02  0.74470750000E+01 0. -1.
<mgrwt>
<rscale>  0 0.14923195E+02</rscale>
<asrwt>0</asrwt>
<pdfrwt beam="1">  1        2 0.98701267E+00 0.14923195E+02</pdfrwt>
<pdfrwt beam="2">  1       -2 0.99450116E+00 0.14923195E+02</pdfrwt>
<totfact>-0.25508558E-13</totfact>
</mgrwt>
</event>
<event>
 4    1  0.5245809E-019  0.1490149E+02  0.7818608E-02  0.1871090E+00
         -2   -1    0    0    0  501 -0.00000000000E+00  0.00000000000E+00  0.11863109135E+03  0.11863109137E+03  0.25500000000E-02 0.  1.
          2   -1    0    0  501    0  0.00000000000E+00 -0.00000000000E+00 -0.46794776117E+00  0.46795470900E+00  0.25500000000E-02 0. -1.
         31    1    1    2    0    0 -0.20316648908E+00 -0.11560458624E+00  0.59070629658E+02  0.59538666893E+02  0.74470750000E+01 0.  1.
        -31    1    1    2    0    0  0.20316648908E+00  0.11560458624E+00  0.59092513927E+02  0.59560379190E+02  0.74470750000E+01 0. -1.
<mgrwt>
<rscale>  0 0.14901486E+02</rscale>
<asrwt>0</asrwt>
<pdfrwt beam="2">  1        2 0.99384355E+00 0.14901486E+02</pdfrwt>
<pdfrwt beam="1">  1       -2 0.98479424E+00 0.14901486E+02</pdfrwt>
<totfact> 0.56920461E-13</totfact>
</mgrwt>
</event>
<event>
 4    1  0.5245809E-019  0.1491214E+02  0.7818608E-02  0.1870761E+00
         -2   -1    0    0    0  501 -0.00000000000E+00  0.00000000000E+00  0.11877071649E+03  0.11877071652E+03  0.25500000000E-02 0. -1.
          2   -1    0    0  501    0  0.00000000000E+00 -0.00000000000E+00 -0.46806646957E+00  0.46807341565E+00  0.25500000000E-02 0.  1.
         31    1    1    2    0    0 -0.28660858789E+00  0.17071179908E+00  0.60358513004E+02  0.60817105366E+02  0.74470750000E+01 0. -1.
        -31    1    1    2    0    0  0.28660858789E+00 -0.17071179908E+00  0.57944137014E+02  0.58421684565E+02  0.74470750000E+01 0.  1.
<mgrwt>
<rscale>  0 0.14912143E+02</rscale>
<asrwt>0</asrwt>
<pdfrwt beam="2">  1        2 0.99409926E+00 0.14912143E+02</pdfrwt>
<pdfrwt beam="1">  1       -2 0.98594974E+00 0.14912143E+02</pdfrwt>
<totfact> 0.39388716E-13</totfact>
</mgrwt>
</event>
<event>
 4    1 -0.5245809E-019  0.1489893E+02  0.7818608E-02  0.1871169E+00
         -2   -1    0    0    0  501 -0.00000000000E+00  0.00000000000E+00  0.11957460545E+03  0.11957460548E+03  0.25500000000E-02 0. -1.
          2   -1    0    0  501    0  0.00000000000E+00 -0.00000000000E+00 -0.46409579600E+00  0.46410280151E+00  0.25500000000E-02 0.  1.
         31    1    1    2    0    0 -0.12145173413E-01  0.52527135468E-01  0.58099185646E+02  0.58574544005E+02  0.74470750000E+01 0.  1.
        -31    1    1    2    0    0  0.12145173413E-01 -0.52527135468E-01  0.61011324009E+02  0.61464164275E+02  0.74470750000E+01 0. -1.
<mgrwt>
<rscale>  0 0.14898925E+02</rscale>
<asrwt>0</asrwt>
<pdfrwt beam="2">  1        2 0.98572492E+00 0.14898925E+02</pdfrwt>
<pdfrwt beam="1">  1       -2 0.99256403E+00 0.14898925E+02</pdfrwt>
<totfact>-0.24435887E-13</totfact>
</mgrwt>
</event>
<event>
 4    1  0.5245809E-019  0.1490317E+02  0.7818608E-02  0.1871038E+00
          2   -1    0    0  501    0  0.00000000000E+00  0.00000000000E+00  0.12022852852E+03  0.12022852855E+03  0.25500000000E-02 0.  1.
         -2   -1    0    0    0  501 -0.00000000000E+00 -0.00000000000E+00 -0.46183454696E+00  0.46184158677E+00  0.25500000000E-02 0. -1.
         31    1    1    2    0    0 -0.50624382621E-01  0.20745167458E+00  0.58693437347E+02  0.59164382129E+02  0.74470750000E+01 0. -1.
        -31    1    1    2    0    0  0.50624382621E-01 -0.20745167458E+00  0.61073256629E+02  0.61525988008E+02  0.74470750000E+01 0.  1.
<mgrwt>
<rscale>  0 0.14903169E+02</rscale>
<asrwt>0</asrwt>
<pdfrwt beam="1">  1        2 0.99795242E+00 0.14903169E+02</pdfrwt>
<pdfrwt beam="2">  1       -2 0.98096118E+00 0.14903169E+02</pdfrwt>
<totfact> 0.66876836E-13</totfact>
</mgrwt>
</event>
<event>
 4    1 -0.5245809E-019  0.1496874E+02  0.7818608E-02  0.1869024E+00
         -2   -1    0    0    0  501 -0.00000000000E+00  0.00000000000E+00  0.12018889962E+03  0.12018889964E+03  0.25500000000E-02 0.  1.
          2   -1    0    0  501    0  0.00000000000E+00 -0.00000000000E+00 -0.46606125355E+00  0.46606822951E+00  0.25500000000E-02 0. -1.
         31    1    1    2    0    0  0.19812050642E-01  0.19904342601E+00  0.65656407826E+02  0.66077702937E+02  0.74470750000E+01 0.  1.
        -31    1    1    2    0    0 -0.19812050642E-01 -0.19904342601E+00  0.54066430536E+02  0.54577264935E+02  0.74470750000E+01 0. -1.
<mgrwt>
<rscale>  0 0.14968742E+02</rscale>
<asrwt>0</asrwt>
<pdfrwt beam="2">  1        2 0.98990287E+00 0.14968742E+02</pdfrwt>
<pdfrwt beam="1">  1       -2 0.99765969E+00 0.14968742E+02</pdfrwt>
<totfact>-0.12114600E-13</totfact>
</mgrwt>
</event>
<event>
 4    1 -0.5245809E-019  0.1492226E+02  0.7818608E-02  0.1870450E+00
          2   -1    0    0  501    0  0.00000000000E+00  0.00000000000E+00  0.11855149758E+03  0.11855149761E+03  0.25500000000E-02 0.  1.
         -2   -1    0    0    0  501 -0.00000000000E+00 -0.00000000000E+00 -0.46956821660E+00  0.46957514046E+00  0.25500000000E-02 0. -1.
         31    1    1    2    0    0  0.43287358815E+00 -0.14847286347E+00  0.59111938179E+02  0.59580949850E+02  0.74470750000E+01 0. -1.
        -31    1    1    2    0    0 -0.43287358815E+00  0.14847286347E+00  0.58969991186E+02  0.59440122899E+02  0.74470750000E+01 0.  1.
<mgrwt>
<rscale>  0 0.14922256E+02</rscale>
<asrwt>0</asrwt>
<pdfrwt beam="1">  1        2 0.98414950E+00 0.14922256E+02</pdfrwt>
<pdfrwt beam="2">  1       -2 0.99726887E+00 0.14922256E+02</pdfrwt>
<totfact>-0.30016822E-13</totfact>
</mgrwt>
</event>
<event>
 4    1 -0.5245809E-019  0.1492216E+02  0.7818608E-02  0.1870453E+00
         -2   -1    0    0    0  501 -0.00000000000E+00  0.00000000000E+00  0.12034907233E+03  0.12034907235E+03  0.25500000000E-02 0.  1.
          2   -1    0    0  501    0  0.00000000000E+00 -0.00000000000E+00 -0.46254841761E+00  0.46255544655E+00  0.25500000000E-02 0. -1.
         31    1    1    2    0    0 -0.24476652627E+00 -0.31687354843E+00  0.61725395621E+02  0.62174301043E+02  0.74470750000E+01 0.  1.
        -31    1    1    2    0    0  0.24476652627E+00  0.31687354843E+00  0.58161128288E+02  0.58637326758E+02  0.74470750000E+01 0. -1.
<mgrwt>
<rscale>  0 0.14922158E+02</rscale>
<asrwt>0</asrwt>
<pdfrwt beam="2">  1        2 0.98247542E+00 0.14922158E+02</pdfrwt>
<pdfrwt beam="1">  1       -2 0.99895507E+00 0.14922158E+02</pdfrwt>
<totfact>-0.17906628E-13</totfact>
</mgrwt>
</event>
<event>
 4    1  0.5245809E-019  0.1490275E+02  0.7818608E-02  0.1871051E+00
          2   -1    0    0  501    0  0.00000000000E+00  0.00000000000E+00  0.11989447690E+03  0.11989447692E+03  0.25500000000E-02 0. -1.
         -2   -1    0    0    0  501 -0.00000000000E+00 -0.00000000000E+00 -0.46309500798E+00  0.46310202862E+00  0.25500000000E-02 0.  1.
         31    1    1    2    0    0 -0.10977733020E+00 -0.15392715042E+00  0.61074010467E+02  0.61526656217E+02  0.74470750000E+01 0. -1.
        -31    1    1    2    0    0  0.10977733020E+00  0.15392715042E+00  0.58357371422E+02  0.58830922736E+02  0.74470750000E+01 0. -1.
<mgrwt>
<rscale>  0 0.14902746E+02</rscale>
<asrwt>0</asrwt>
<pdfrwt beam="1">  1        2 0.99520067E+00 0.14902746E+02</pdfrwt>
<pdfrwt beam="2">  1       -2 0.98361764E+00 0.14902746E+02</pdfrwt>
<totfact> 0.67736413E-13</totfact>
</mgrwt>
</event>
<event>
 4    1 -0.5245809E-019  0.1492776E+02  0.7818608E-02  0.1870281E+00
         -2   -1    0    0    0  501 -0.00000000000E+00  0.00000000000E+00  0.12032534641E+03  0.12032534643E+03  0.25500000000E-02 0.  1.
          2   -1    0    0  501    0  0.00000000000E+00 -0.00000000000E+00 -0.46298679383E+00  0.46299381612E+00  0.25500000000E-02 0. -1.
         31    1    1    2    0    0  0.18297630272E+00  0.28652133802E+00  0.56958479730E+02  0.57444259191E+02  0.74470750000E+01 0. -1.
        -31    1    1    2    0    0 -0.18297630272E+00 -0.28652133802E+00  0.62903879884E+02  0.63344081060E+02  0.74470750000E+01 0.  1.
<mgrwt>
<rscale>  0 0.14927756E+02</rscale>
<asrwt>0</asrwt>
<pdfrwt beam="2">  1        2 0.98340223E+00 0.14927756E+02</pdfrwt>
<pdfrwt beam="1">  1       -2 0.99876251E+00 0.14927756E+02</pdfrwt>
<totfact>-0.17840101E-13</totfact>
</mgrwt>
</event>
<event>
 4    1 -0.5245809E-019  0.1494488E+02  0.7818608E-02  0.1869755E+00
         -2   -1    0    0    0  501 -0.00000000000E+00  0.00000000000E+00  0.11996970314E+03  0.11996970317E+03  0.25500000000E-02 0. -1.
          2   -1    0    0  501    0  0.00000000000E+00 -0.00000000000E+00 -0.46542544457E+00  0.46543243006E+00  0.25500000000E-02 0.  1.
         31    1    1    2    0    0 -0.51014198756E+00  0.33502144218E+00  0.59129773755E+02  0.59600013042E+02  0.74470750000E+01 0.  1.
        -31    1    1    2    0    0  0.51014198756E+00 -0.33502144218E+00  0.60374503942E+02  0.60835122557E+02  0.74470750000E+01 0.  1.
<mgrwt>
<rscale>  0 0.14944882E+02</rscale>
<asrwt>0</asrwt>
<pdfrwt beam="2">  1        2 0.98855069E+00 0.14944882E+02</pdfrwt>
<pdfrwt beam="1">  1       -2 0.99584197E+00 0.14944882E+02</pdfrwt>
<totfact>-0.19882082E-13</totfact>
</mgrwt>
</event>
<event>
 4    1  0.5245809E-019  0.1490049E+02  0.7818608E-02  0.1871120E+00
          2   -1    0    0  501    0  0.00000000000E+00  0.00000000000E+00  0.11950126623E+03  0.11950126625E+03  0.25500000000E-02 0. -1.
         -2   -1    0    0    0  501 -0.00000000000E+00 -0.00000000000E+00 -0.46447842158E+00  0.46448542131E+00  0.25500000000E-02 0.  1.
         31    1    1    2    0    0  0.14293720283E+00 -0.16248317188E+00  0.59352781645E+02  0.59818546011E+02  0.74470750000E+01 0. -1.
        -31    1    1    2    0    0 -0.14293720283E+00  0.16248317188E+00  0.59684006158E+02  0.60147205662E+02  0.74470750000E+01 0.  1.
<mgrwt>
<rscale>  0 0.14900494E+02</rscale>
<asrwt>0</asrwt>
<pdfrwt beam="1">  1        2 0.99196077E+00 0.14900494E+02</pdfrwt>
<pdfrwt beam="2">  1       -2 0.98653211E+00 0.14900494E+02</pdfrwt>
<totfact> 0.37611654E-13</totfact>
</mgrwt>
</event>
<event>
 4    1  0.5245809E-019  0.1491801E+02  0.7818608E-02  0.1870581E+00
         -2   -1    0    0    0  501 -0.00000000000E+00  0.00000000000E+00  0.11856480037E+03  0.11856480039E+03  0.25500000000E-02 0. -1.
          2   -1    0    0  501    0  0.00000000000E+00 -0.00000000000E+00 -0.46924848526E+00  0.46925541384E+00  0.25500000000E-02 0.  1.
         31    1    1    2    0    0  0.36826278663E-01  0.32260592197E+00  0.61194914464E+02  0.61647237676E+02  0.74470750000E+01 0. -1.
        -31    1    1    2    0    0 -0.36826278663E-01 -0.32260592197E+00  0.56900637417E+02  0.57386818131E+02  0.74470750000E+01 0.  1.
<mgrwt>
<rscale>  0 0.14918012E+02</rscale>
<asrwt>0</asrwt>
<pdfrwt beam="2">  1        2 0.99659295E+00 0.14918012E+02</pdfrwt>
<pdfrwt beam="1">  1       -2 0.98425686E+00 0.14918012E+02</pdfrwt>
<totfact> 0.47481480E-13</totfact>
</mgrwt>
</event>
<event>
 4    1 -0.5245809E-019  0.1490808E+02  0.7818608E-02  0.1870887E+00
         -2   -1    0    0    0  501 -0.00000000000E+00  0.00000000000E+00  0.11988891269E+03  0.11988891272E+03  0.25500000000E-02 0.  1.
          2   -1    0    0  501    0  0.00000000000E+00 -0.00000000000E+00 -0.46344806461E+00  0.46345507991E+00  0.25500000000E-02 0. -1.
         31    1    1    2    0    0  0.19572652401E+00 -0.12427569514E+00  0.57907040219E+02  0.58384398484E+02  0.74470750000E+01 0. -1.
        -31    1    1    2    0    0 -0.19572652401E+00  0.12427569514E+00  0.61518424408E+02  0.61967969315E+02  0.74470750000E+01 0.  1.
<mgrwt>
<rscale>  0 0.14908079E+02</rscale>
<asrwt>0</asrwt>
<pdfrwt beam="2">  1        2 0.98436446E+00 0.14908079E+02</pdfrwt>
<pdfrwt beam="1">  1       -2 0.99515758E+00 0.14908079E+02</pdfrwt>
<totfact>-0.38353592E-13</totfact>
</mgrwt>
</event>
<event>
 4    1 -0.5245809E-019  0.1500992E+02  0.7818608E-02  0.1867766E+00
          2   -1    0    0  501    0  0.00000000000E+00  0.00000000000E+00  0.11996837337E+03  0.11996837339E+03  0.25500000000E-02 0. -1.
         -2   -1    0    0    0  501 -0.00000000000E+00 -0.00000000000E+00 -0.46949058590E+00  0.46949751091E+00  0.25500000000E-02 0.  1.
         31    1    1    2    0    0  0.11104157770E+00 -0.92640958774E-01  0.52375313570E+02  0.52902299668E+02  0.74470750000E+01 0.  1.
        -31    1    1    2    0    0 -0.11104157770E+00  0.92640958774E-01  0.67123569211E+02  0.67535571236E+02  0.74470750000E+01 0. -1.
<mgrwt>
<rscale>  0 0.15009922E+02</rscale>
<asrwt>0</asrwt>
<pdfrwt beam="1">  1        2 0.99586458E+00 0.15009922E+02</pdfrwt>
<pdfrwt beam="2">  1       -2 0.99715110E+00 0.15009922E+02</pdfrwt>
<totfact>-0.83306397E-14</totfact>
</mgrwt>
</event>
<event>
 4    1 -0.5245809E-019  0.1491795E+02  0.7818608E-02  0.1870583E+00
         -2   -1    0    0    0  501 -0.00000000000E+00  0.00000000000E+00  0.11968145459E+03  0.11968145462E+03  0.25500000000E-02 0. -1.
          2   -1    0    0  501    0  0.00000000000E+00 -0.00000000000E+00 -0.46486622833E+00  0.46487322222E+00  0.25500000000E-02 0.  1.
         31    1    1    2    0    0  0.25219374775E+00  0.21469021523E+00  0.61703346381E+02  0.62152003783E+02  0.74470750000E+01 0.  1.
        -31    1    1    2    0    0 -0.25219374775E+00 -0.21469021523E+00  0.57513241983E+02  0.57994324059E+02  0.74470750000E+01 0. -1.
<mgrwt>
<rscale>  0 0.14917947E+02</rscale>
<asrwt>0</asrwt>
<pdfrwt beam="2">  1        2 0.98735835E+00 0.14917947E+02</pdfrwt>
<pdfrwt beam="1">  1       -2 0.99345390E+00 0.14917947E+02</pdfrwt>
<totfact>-0.22596502E-13</totfact>
</mgrwt>
</event>
<event>
 4    1 -0.5245809E-019  0.1494699E+02  0.7818608E-02  0.1869690E+00
         -2   -1    0    0    0  501 -0.00000000000E+00  0.00000000000E+00  0.12015429989E+03  0.12015429992E+03  0.25500000000E-02 0.  1.
          2   -1    0    0  501    0  0.00000000000E+00 -0.00000000000E+00 -0.46484154047E+00  0.46484853473E+00  0.25500000000E-02 0. -1.
         31    1    1    2    0    0 -0.45609707885E+00  0.42909401266E+00  0.59478371511E+02  0.59946040318E+02  0.74470750000E+01 0.  1.
        -31    1    1    2    0    0  0.45609707885E+00 -0.42909401266E+00  0.60211086841E+02  0.60673108136E+02  0.74470750000E+01 0.  1.
<mgrwt>
<rscale>  0 0.14946991E+02</rscale>
<asrwt>0</asrwt>
<pdfrwt beam="2">  1        2 0.98732115E+00 0.14946991E+02</pdfrwt>
<pdfrwt beam="1">  1       -2 0.99736351E+00 0.14946991E+02</pdfrwt>
<totfact>-0.17917849E-13</totfact>
</mgrwt>
</event>
<event>
 4    1  0.5245809E-019  0.1493298E+02  0.7818608E-02  0.1870120E+00
          2   -1    0    0  501    0  0.00000000000E+00  0.00000000000E+00  0.12030353762E+03  0.12030353765E+03  0.25500000000E-02 0. -1.
         -2   -1    0    0    0  501 -0.00000000000E+00 -0.00000000000E+00 -0.46339506543E+00  0.46340208152E+00  0.25500000000E-02 0.  1.
         31    1    1    2    0    0 -0.36737564856E+00  0.33897040418E+00  0.58308713682E+02  0.58784478250E+02  0.74470750000E+01 0. -1.
        -31    1    1    2    0    0  0.36737564856E+00 -0.33897040418E+00  0.61531428873E+02  0.61982461479E+02  0.74470750000E+01 0.  1.
<mgrwt>
<rscale>  0 0.14932982E+02</rscale>
<asrwt>0</asrwt>
<pdfrwt beam="1">  1        2 0.99858555E+00 0.14932982E+02</pdfrwt>
<pdfrwt beam="2">  1       -2 0.98426539E+00 0.14932982E+02</pdfrwt>
<totfact> 0.24472864E-13</totfact>
</mgrwt>
</event>
<event>
 4    1 -0.5245809E-019  0.1490926E+02  0.7818608E-02  0.1870850E+00
         -2   -1    0    0    0  501 -0.00000000000E+00  0.00000000000E+00  0.11945591156E+03  0.11945591159E+03  0.25500000000E-02 0. -1.
          2   -1    0    0  501    0  0.00000000000E+00 -0.00000000000E+00 -0.46520181909E+00  0.46520880794E+00  0.25500000000E-02 0.  1.
         31    1    1    2    0    0 -0.19995140709E+00 -0.17109134147E+00  0.57820682140E+02  0.58298880453E+02  0.74470750000E+01 0.  1.
        -31    1    1    2    0    0  0.19995140709E+00  0.17109134147E+00  0.61170027603E+02  0.61622239944E+02  0.74470750000E+01 0. -1.
<mgrwt>
<rscale>  0 0.14909263E+02</rscale>
<asrwt>0</asrwt>
<pdfrwt beam="2">  1        2 0.98806114E+00 0.14909263E+02</pdfrwt>
<pdfrwt beam="1">  1       -2 0.99159173E+00 0.14909263E+02</pdfrwt>
<totfact>-0.12115951E-13</totfact>
</mgrwt>
</event>
<event>
 4    1  0.5245809E-019  0.1493086E+02  0.7818608E-02  0.1870186E+00
          2   -1    0    0  501    0  0.00000000000E+00  0.00000000000E+00  0.11979419846E+03  0.11979419849E+03  0.25500000000E-02 0.  1.
         -2   -1    0    0    0  501 -0.00000000000E+00 -0.00000000000E+00 -0.46523314851E+00  0.46524013689E+00  0.25500000000E-02 0. -1.
         31    1    1    2    0    0  0.27193722678E-01 -0.41101230055E+00  0.57066294560E+02  0.57551633960E+02  0.74470750000E+01 0.  1.
        -31    1    1    2    0    0 -0.27193722678E-01  0.41101230055E+00  0.62262670753E+02  0.62707804665E+02  0.74470750000E+01 0. -1.
<mgrwt>
<rscale>  0 0.14930861E+02</rscale>
<asrwt>0</asrwt>
<pdfrwt beam="1">  1        2 0.99438918E+00 0.14930861E+02</pdfrwt>
<pdfrwt beam="2">  1       -2 0.98813825E+00 0.14930861E+02</pdfrwt>
<totfact> 0.14781280E-13</totfact>
</mgrwt>
</event>
<event>
 4    1 -0.5245809E-019  0.1497731E+02  0.7818608E-02  0.1868762E+00
         -2   -1    0    0    0  501 -0.00000000000E+00  0.00000000000E+00  0.12029132816E+03  0.12029132818E+03  0.25500000000E-02 0.  1.
          2   -1    0    0  501    0  0.00000000000E+00 -0.00000000000E+00 -0.46619750570E+00  0.46620447963E+00  0.25500000000E-02 0. -1.
         31    1    1    2    0    0 -0.30538228764E+00 -0.56426544018E+00  0.56223407045E+02  0.56718093053E+02  0.74470750000E+01 0. -1.
        -31    1    1    2    0    0  0.30538228764E+00  0.56426544018E+00  0.63601723607E+02  0.64039439611E+02  0.74470750000E+01 0.  1.
<mgrwt>
<rscale>  0 0.14977308E+02</rscale>
<asrwt>0</asrwt>
<pdfrwt beam="2">  1        2 0.99019440E+00 0.14977308E+02</pdfrwt>
<pdfrwt beam="1">  1       -2 0.99850777E+00 0.14977308E+02</pdfrwt>
<totfact>-0.81555550E-14</totfact>
</mgrwt>
</event>
<event>
 4    1  0.5245809E-019  0.1492050E+02  0.7818608E-02  0.1870504E+00
         -2   -1    0    0    0  501 -0.00000000000E+00  0.00000000000E+00  0.11836767632E+03  0.11836767635E+03  0.25500000000E-02 0. -1.
          2   -1    0    0  501    0  0.00000000000E+00 -0.00000000000E+00 -0.47018693877E+00  0.47019385352E+00  0.25500000000E-02 0.  1.
         31    1    1    2    0    0  0.22405681609E+00 -0.24312775422E+00  0.61299479166E+02  0.61751067883E+02  0.74470750000E+01 0. -1.
        -31    1    1    2    0    0 -0.22405681609E+00  0.24312775422E+00  0.56598010215E+02  0.57086802319E+02  0.74470750000E+01 0.  1.
<mgrwt>
<rscale>  0 0.14920502E+02</rscale>
<asrwt>0</asrwt>
<pdfrwt beam="2">  1        2 0.99857157E+00 0.14920502E+02</pdfrwt>
<pdfrwt beam="1">  1       -2 0.98263466E+00 0.14920502E+02</pdfrwt>
<totfact> 0.36008887E-13</totfact>
</mgrwt>
</event>
<event>
 4    1 -0.5245809E-019  0.1492824E+02  0.7818608E-02  0.1870266E+00
         -2   -1    0    0    0  501 -0.00000000000E+00  0.00000000000E+00  0.11994766912E+03  0.11994766915E+03  0.25500000000E-02 0.  1.
          2   -1    0    0  501    0  0.00000000000E+00 -0.00000000000E+00 -0.46447463054E+00  0.46448163033E+00  0.25500000000E-02 0. -1.
         31    1    1    2    0    0 -0.30824914626E+00 -0.16635055685E+00  0.62666102492E+02  0.63108018648E+02  0.74470750000E+01 0.  1.
        -31    1    1    2    0    0  0.30824914626E+00  0.16635055685E+00  0.56817092002E+02  0.57304132134E+02  0.74470750000E+01 0. -1.
<mgrwt>
<rscale>  0 0.14928238E+02</rscale>
<asrwt>0</asrwt>
<pdfrwt beam="2">  1        2 0.98653830E+00 0.14928238E+02</pdfrwt>
<pdfrwt beam="1">  1       -2 0.99565191E+00 0.14928238E+02</pdfrwt>
<totfact>-0.26469956E-13</totfact>
</mgrwt>
</event>
<event>
 4    1 -0.5245809E-019  0.1491480E+02  0.7818608E-02  0.1870680E+00
         -2   -1    0    0    0  501 -0.00000000000E+00  0.00000000000E+00  0.12036709607E+03  0.12036709610E+03  0.25500000000E-02 0.  1.
          2   -1    0    0  501    0  0.00000000000E+00 -0.00000000000E+00 -0.46202294041E+00  0.46202997734E+00  0.25500000000E-02 0. -1.
         31    1    1    2    0    0 -0.11365071013E+00  0.37489350974E+00  0.60114306174E+02  0.60575095497E+02  0.74470750000E+01 0. -1.
        -31    1    1    2    0    0  0.11365071013E+00 -0.37489350974E+00  0.59790766954E+02  0.60254030576E+02  0.74470750000E+01 0. -1.
<mgrwt>
<rscale>  0 0.14914796E+02</rscale>
<asrwt>0</asrwt>
<pdfrwt beam="2">  1        2 0.98136413E+00 0.14914796E+02</pdfrwt>
<pdfrwt beam="1">  1       -2 0.99909975E+00 0.14914796E+02</pdfrwt>
<totfact>-0.18829395E-13</totfact>
</mgrwt>
</event>
<event>
 4    1 -0.5245809E-019  0.1495866E+02  0.7818608E-02  0.1869333E+00
          2   -1    0    0  501    0  0.00000000000E+00  0.00000000000E+00  0.11947510797E+03  0.11947510800E+03  0.25500000000E-02 0.  1.
         -2   -1    0    0    0  501 -0.00000000000E+00 -0.00000000000E+00 -0.46821429794E+00  0.46822124182E+00  0.25500000000E-02 0. -1.
         31    1    1    2    0    0 -0.15017432881E+00 -0.67630097771E+00  0.59191816557E+02  0.59662467337E+02  0.74470750000E+01 0. -1.
        -31    1    1    2    0    0  0.15017432881E+00  0.67630097771E+00  0.59815077117E+02  0.60280861904E+02  0.74470750000E+01 0.  1.
<mgrwt>
<rscale>  0 0.14958659E+02</rscale>
<asrwt>0</asrwt>
<pdfrwt beam="1">  1        2 0.99177537E+00 0.14958659E+02</pdfrwt>
<pdfrwt beam="2">  1       -2 0.99443501E+00 0.14958659E+02</pdfrwt>
<totfact>-0.15364603E-13</totfact>
</mgrwt>
</event>
<event>
 4    1  0.5245809E-019  0.1489861E+02  0.7818608E-02  0.1871178E+00
          2   -1    0    0  501    0  0.00000000000E+00  0.00000000000E+00  0.11969575247E+03  0.11969575250E+03  0.25500000000E-02 0. -1.
         -2   -1    0    0    0  501 -0.00000000000E+00 -0.00000000000E+00 -0.46360647170E+00  0.46361348460E+00  0.25500000000E-02 0.  1.
         31    1    1    2    0    0  0.14340312153E-01 -0.17308758549E+00  0.59170118701E+02  0.59637169937E+02  0.74470750000E+01 0.  1.
        -31    1    1    2    0    0 -0.14340312153E-01  0.17308758549E+00  0.60062027299E+02  0.60522196046E+02  0.74470750000E+01 0.  1.
<mgrwt>
<rscale>  0 0.14898610E+02</rscale>
<asrwt>0</asrwt>
<pdfrwt beam="1">  1        2 0.99356171E+00 0.14898610E+02</pdfrwt>
<pdfrwt beam="2">  1       -2 0.98469349E+00 0.14898610E+02</pdfrwt>
<totfact> 0.59789294E-13</totfact>
</mgrwt>
</event>
<event>
 4    1 -0.5245809E-019  0.1493514E+02  0.7818608E-02  0.1870054E+00
          2   -1    0    0  501    0  0.00000000000E+00  0.00000000000E+00  0.11881095970E+03  0.11881095973E+03  0.25500000000E-02 0.  1.
         -2   -1    0    0    0  501 -0.00000000000E+00 -0.00000000000E+00 -0.46935225101E+00  0.46935917806E+00  0.25500000000E-02 0. -1.
         31    1    1    2    0    0  0.50014951673E+00 -0.21532106060E+00  0.59935488310E+02  0.60398826129E+02  0.74470750000E+01 0. -1.
        -31    1    1    2    0    0 -0.50014951673E+00  0.21532106060E+00  0.58406119143E+02  0.58881492781E+02  0.74470750000E+01 0.  1.
<mgrwt>
<rscale>  0 0.14935141E+02</rscale>
<asrwt>0</asrwt>
<pdfrwt beam="1">  1        2 0.98629313E+00 0.14935141E+02</pdfrwt>
<pdfrwt beam="2">  1       -2 0.99682060E+00 0.14935141E+02</pdfrwt>
<totfact>-0.23549289E-13</totfact>
</mgrwt>
</event>
<event>
 4    1 -0.5245809E-019  0.1493619E+02  0.7818608E-02  0.1870022E+00
          2   -1    0    0  501    0  0.00000000000E+00  0.00000000000E+00  0.11907572492E+03  0.11907572495E+03  0.25500000000E-02 0.  1.
         -2   -1    0    0    0  501 -0.00000000000E+00 -0.00000000000E+00 -0.46837465558E+00  0.46838159709E+00  0.25500000000E-02 0. -1.
         31    1    1    2    0    0  0.53450723673E-01  0.54993337836E+00  0.58576335828E+02  0.59050413452E+02  0.74470750000E+01 0.  1.
        -31    1    1    2    0    0 -0.53450723673E-01 -0.54993337836E+00  0.60031014438E+02  0.60493693094E+02  0.74470750000E+01 0. -1.
<mgrwt>
<rscale>  0 0.14936193E+02</rscale>
<asrwt>0</asrwt>
<pdfrwt beam="1">  1        2 0.98847431E+00 0.14936193E+02</pdfrwt>
<pdfrwt beam="2">  1       -2 0.99476123E+00 0.14936193E+02</pdfrwt>
<totfact>-0.21100427E-13</totfact>
</mgrwt>
</event>
<event>
 4    1 -0.5245809E-019  0.1495784E+02  0.7818608E-02  0.1869358E+00
          2   -1    0    0  501    0  0.00000000000E+00  0.00000000000E+00  0.11945440095E+03  0.11945440098E+03  0.25500000000E-02 0. -1.
         -2   -1    0    0    0  501 -0.00000000000E+00 -0.00000000000E+00 -0.46824408791E+00  0.46825103135E+00  0.25500000000E-02 0.  1.
         31    1    1    2    0    0  0.21914216305E-01 -0.65761358307E+00  0.61143433461E+02  0.61598793148E+02  0.74470750000E+01 0.  1.
        -31    1    1    2    0    0 -0.21914216305E-01  0.65761358307E+00  0.57842723404E+02  0.58323858864E+02  0.74470750000E+01 0.  1.
<mgrwt>
<rscale>  0 0.14957839E+02</rscale>
<asrwt>0</asrwt>
<pdfrwt beam="1">  1        2 0.99160439E+00 0.14957839E+02</pdfrwt>
<pdfrwt beam="2">  1       -2 0.99449736E+00 0.14957839E+02</pdfrwt>
<totfact>-0.15586858E-13</totfact>
</mgrwt>
</event>
<event>
 4    1  0.5245809E-019  0.1492289E+02  0.7818608E-02  0.1870431E+00
          2   -1    0    0  501    0  0.00000000000E+00  0.00000000000E+00  0.12004253321E+03  0.12004253324E+03  0.25500000000E-02 0. -1.
         -2   -1    0    0    0  501 -0.00000000000E+00 -0.00000000000E+00 -0.46377503150E+00  0.46378204185E+00  0.25500000000E-02 0.  1.
         31    1    1    2    0    0 -0.33079702081E+00 -0.12219110776E+00  0.62210212426E+02  0.62655357420E+02  0.74470750000E+01 0. -1.
        -31    1    1    2    0    0  0.33079702081E+00  0.12219110776E+00  0.57368545752E+02  0.57850957858E+02  0.74470750000E+01 0.  1.
<mgrwt>
<rscale>  0 0.14922889E+02</rscale>
<asrwt>0</asrwt>
<pdfrwt beam="1">  1        2 0.99643053E+00 0.14922889E+02</pdfrwt>
<pdfrwt beam="2">  1       -2 0.98506111E+00 0.14922889E+02</pdfrwt>
<totfact> 0.39365869E-13</totfact>
</mgrwt>
</event>
<event>
 4    1 -0.5245809E-019  0.1491993E+02  0.7818608E-02  0.1870522E+00
          2   -1    0    0  501    0  0.00000000000E+00  0.00000000000E+00  0.11822733527E+03  0.11822733530E+03  0.25500000000E-02 0.  1.
         -2   -1    0    0    0  501 -0.00000000000E+00 -0.00000000000E+00 -0.47070892670E+00  0.47071583378E+00  0.25500000000E-02 0. -1.
         31    1    1    2    0    0  0.16085383869E-01  0.86234056698E-01  0.62295109935E+02  0.62738722835E+02  0.74470750000E+01 0.  1.
        -31    1    1    2    0    0 -0.16085383869E-01 -0.86234056698E-01  0.55461516413E+02  0.55959328301E+02  0.74470750000E+01 0. -1.
<mgrwt>
<rscale>  0 0.14919929E+02</rscale>
<asrwt>0</asrwt>
<pdfrwt beam="1">  1        2 0.98147854E+00 0.14919929E+02</pdfrwt>
<pdfrwt beam="2">  1       -2 0.99967105E+00 0.14919929E+02</pdfrwt>
<totfact>-0.70549489E-14</totfact>
</mgrwt>
</event>
<event>
 4    1 -0.5245809E-019  0.1495271E+02  0.7818608E-02  0.1869515E+00
          2   -1    0    0  501    0  0.00000000000E+00  0.00000000000E+00  0.11981253061E+03  0.11981253064E+03  0.25500000000E-02 0. -1.
         -2   -1    0    0    0  501 -0.00000000000E+00 -0.00000000000E+00 -0.46652458116E+00  0.46653155020E+00  0.25500000000E-02 0.  1.
         31    1    1    2    0    0 -0.16965488361E+00 -0.35178863713E+00  0.63963137897E+02  0.64396385564E+02  0.74470750000E+01 0. -1.
        -31    1    1    2    0    0  0.16965488361E+00  0.35178863713E+00  0.55382868135E+02  0.55882676627E+02  0.74470750000E+01 0. -1.
<mgrwt>
<rscale>  0 0.14952714E+02</rscale>
<asrwt>0</asrwt>
<pdfrwt beam="1">  1        2 0.99455144E+00 0.14952714E+02</pdfrwt>
<pdfrwt beam="2">  1       -2 0.99087111E+00 0.14952714E+02</pdfrwt>
<totfact>-0.37654969E-14</totfact>
</mgrwt>
</event>
<event>
 4    1  0.5245809E-019  0.1491536E+02  0.7818608E-02  0.1870662E+00
         -2   -1    0    0    0  501 -0.00000000000E+00  0.00000000000E+00  0.11827654836E+03  0.11827654838E+03  0.25500000000E-02 0.  1.
          2   -1    0    0  501    0  0.00000000000E+00 -0.00000000000E+00 -0.47022483042E+00  0.47023174461E+00  0.25500000000E-02 0. -1.
         31    1    1    2    0    0  0.29506722596E+00 -0.25897014715E+00  0.59401990333E+02  0.59868267987E+02  0.74470750000E+01 0. -1.
        -31    1    1    2    0    0 -0.29506722596E+00  0.25897014715E+00  0.58404333192E+02  0.58878512141E+02  0.74470750000E+01 0.  1.
<mgrwt>
<rscale>  0 0.14915359E+02</rscale>
<asrwt>0</asrwt>
<pdfrwt beam="2">  1        2 0.99864868E+00 0.14915359E+02</pdfrwt>
<pdfrwt beam="1">  1       -2 0.98188146E+00 0.14915359E+02</pdfrwt>
<totfact> 0.40063695E-13</totfact>
</mgrwt>
</event>
<event>
 4    1  0.5245809E-019  0.1490731E+02  0.7818608E-02  0.1870910E+00
          2   -1    0    0  501    0  0.00000000000E+00  0.00000000000E+00  0.12006980794E+03  0.12006980797E+03  0.25500000000E-02 0.  1.
         -2   -1    0    0    0  501 -0.00000000000E+00 -0.00000000000E+00 -0.46270227629E+00  0.46270930289E+00  0.25500000000E-02 0. -1.
         31    1    1    2    0    0  0.12841693652E+00 -0.12167550022E+00  0.61892931554E+02  0.62339595750E+02  0.74470750000E+01 0.  1.
        -31    1    1    2    0    0 -0.12841693652E+00  0.12167550022E+00  0.57714174108E+02  0.58192921518E+02  0.74470750000E+01 0. -1.
<mgrwt>
<rscale>  0 0.14907313E+02</rscale>
<asrwt>0</asrwt>
<pdfrwt beam="1">  1        2 0.99664719E+00 0.14907313E+02</pdfrwt>
<pdfrwt beam="2">  1       -2 0.98279221E+00 0.14907313E+02</pdfrwt>
<totfact> 0.66170629E-13</totfact>
</mgrwt>
</event>
<event>
 4    1 -0.5245809E-019  0.1497231E+02  0.7818608E-02  0.1868915E+00
          2   -1    0    0  501    0  0.00000000000E+00  0.00000000000E+00  0.11917466100E+03  0.11917466103E+03  0.25500000000E-02 0.  1.
         -2   -1    0    0    0  501 -0.00000000000E+00 -0.00000000000E+00 -0.47025178726E+00  0.47025870106E+00  0.25500000000E-02 0. -1.
         31    1    1    2    0    0 -0.51364405394E+00 -0.44999331470E+00  0.62088636809E+02  0.62537381390E+02  0.74470750000E+01 0.  1.
        -31    1    1    2    0    0  0.51364405394E+00  0.44999331470E+00  0.56615772403E+02  0.57107538338E+02  0.74470750000E+01 0. -1.
<mgrwt>
<rscale>  0 0.14972309E+02</rscale>
<asrwt>0</asrwt>
<pdfrwt beam="1">  1        2 0.98930791E+00 0.14972309E+02</pdfrwt>
<pdfrwt beam="2">  1       -2 0.99873551E+00 0.14972309E+02</pdfrwt>
<totfact>-0.76993705E-14</totfact>
</mgrwt>
</event>
<event>
 4    1 -0.5245809E-019  0.1497493E+02  0.7818608E-02  0.1868835E+00
         -2   -1    0    0    0  501 -0.00000000000E+00  0.00000000000E+00  0.11980612460E+03  0.11980612463E+03  0.25500000000E-02 0. -1.
          2   -1    0    0  501    0  0.00000000000E+00 -0.00000000000E+00 -0.46793671941E+00  0.46794366741E+00  0.25500000000E-02 0.  1.
         31    1    1    2    0    0  0.60552162886E+00  0.40798209553E+00  0.57543006762E+02  0.58027490547E+02  0.74470750000E+01 0. -1.
        -31    1    1    2    0    0 -0.60552162886E+00 -0.40798209553E+00  0.61795181118E+02  0.62246577748E+02  0.74470750000E+01 0. -1.
<mgrwt>
<rscale>  0 0.14974926E+02</rscale>
<asrwt>0</asrwt>
<pdfrwt beam="2">  1        2 0.99385849E+00 0.14974926E+02</pdfrwt>
<pdfrwt beam="1">  1       -2 0.99451015E+00 0.14974926E+02</pdfrwt>
<totfact>-0.13211549E-13</totfact>
</mgrwt>
</event>
<event>
 4    1  0.5245809E-019  0.1495267E+02  0.7818608E-02  0.1869516E+00
          2   -1    0    0  501    0  0.00000000000E+00  0.00000000000E+00  0.12027247641E+03  0.12027247644E+03  0.25500000000E-02 0.  1.
         -2   -1    0    0    0  501 -0.00000000000E+00 -0.00000000000E+00 -0.46473800656E+00  0.46474500239E+00  0.25500000000E-02 0. -1.
         31    1    1    2    0    0  0.64744276521E+00  0.13131245908E+00  0.60035001961E+02  0.60498733967E+02  0.74470750000E+01 0. -1.
        -31    1    1    2    0    0 -0.64744276521E+00 -0.13131245908E+00  0.59772736446E+02  0.60238487476E+02  0.74470750000E+01 0. -1.
<mgrwt>
<rscale>  0 0.14952674E+02</rscale>
<asrwt>0</asrwt>
<pdfrwt beam="1">  1        2 0.99833982E+00 0.14952674E+02</pdfrwt>
<pdfrwt beam="2">  1       -2 0.98710583E+00 0.14952674E+02</pdfrwt>
<totfact> 0.11125367E-13</totfact>
</mgrwt>
</event>
<event>
 4    1 -0.5245809E-019  0.1489991E+02  0.7818608E-02  0.1871138E+00
         -2   -1    0    0    0  501 -0.00000000000E+00  0.00000000000E+00  0.11964226889E+03  0.11964226891E+03  0.25500000000E-02 0. -1.
          2   -1    0    0  501    0  0.00000000000E+00 -0.00000000000E+00 -0.46389441278E+00  0.46390142133E+00  0.25500000000E-02 0.  1.
         31    1    1    2    0    0 -0.18246276432E+00 -0.82976082154E-01  0.59170422280E+02  0.59637555085E+02  0.74470750000E+01 0. -1.
        -31    1    1    2    0    0  0.18246276432E+00  0.82976082154E-01  0.60007952194E+02  0.60468615250E+02  0.74470750000E+01 0. -1.
<mgrwt>
<rscale>  0 0.14899906E+02</rscale>
<asrwt>0</asrwt>
<pdfrwt beam="2">  1        2 0.98530101E+00 0.14899906E+02</pdfrwt>
<pdfrwt beam="1">  1       -2 0.99312185E+00 0.14899906E+02</pdfrwt>
<totfact>-0.29323324E-13</totfact>
</mgrwt>
</event>
<event>
 4    1 -0.5245809E-019  0.1497649E+02  0.7818608E-02  0.1868787E+00
         -2   -1    0    0    0  501 -0.00000000000E+00  0.00000000000E+00  0.12006322612E+03  0.12006322615E+03  0.25500000000E-02 0. -1.
          2   -1    0    0  501    0  0.00000000000E+00 -0.00000000000E+00 -0.46703245005E+00  0.46703941150E+00  0.25500000000E-02 0.  1.
         31    1    1    2    0    0  0.29913185599E+00  0.48022917943E+00  0.64167909590E+02  0.64601080851E+02  0.74470750000E+01 0. -1.
        -31    1    1    2    0    0 -0.29913185599E+00 -0.48022917943E+00  0.55428284079E+02  0.55929184706E+02  0.74470750000E+01 0.  1.
<mgrwt>
<rscale>  0 0.14976494E+02</rscale>
<asrwt>0</asrwt>
<pdfrwt beam="2">  1        2 0.99195363E+00 0.14976494E+02</pdfrwt>
<pdfrwt beam="1">  1       -2 0.99662857E+00 0.14976494E+02</pdfrwt>
<totfact>-0.13070416E-13</totfact>
</mgrwt>
</event>
<event>
 4    1  0.5245809E-019  0.1492865E+02  0.7818608E-02  0.1870254E+00
          2   -1    0    0  501    0  0.00000000000E+00  0.00000000000E+00  0.12040704883E+03  0.12040704885E+03  0.25500000000E-02 0. -1.
         -2   -1    0    0    0  501 -0.00000000000E+00 -0.00000000000E+00 -0.46272787122E+00  0.46273489743E+00  0.25500000000E-02 0.  1.
         31    1    1    2    0    0 -0.28134064743E+00  0.81154966686E-01  0.63324726339E+02  0.63761788170E+02  0.74470750000E+01 0. -1.
        -31    1    1    2    0    0  0.28134064743E+00 -0.81154966686E-01  0.56619594616E+02  0.57107995581E+02  0.74470750000E+01 0.  1.
<mgrwt>
<rscale>  0 0.14928647E+02</rscale>
<asrwt>0</asrwt>
<pdfrwt beam="1">  1        2 0.99943594E+00 0.14928647E+02</pdfrwt>
<pdfrwt beam="2">  1       -2 0.98285693E+00 0.14928647E+02</pdfrwt>
<totfact> 0.14921132E-13</totfact>
</mgrwt>
</event>
<event>
 4    1 -0.5245809E-019  0.1493765E+02  0.7818608E-02  0.1869977E+00
          2   -1    0    0  501    0  0.00000000000E+00  0.00000000000E+00  0.11947078664E+03  0.11947078667E+03  0.25500000000E-02 0.  1.
         -2   -1    0    0    0  501 -0.00000000000E+00 -0.00000000000E+00 -0.46691703380E+00  0.46692399698E+00  0.25500000000E-02 0. -1.
         31    1    1    2    0    0 -0.19708572211E+00 -0.53190179499E+00  0.59917300366E+02  0.60380986838E+02  0.74470750000E+01 0. -1.
        -31    1    1    2    0    0  0.19708572211E+00  0.53190179499E+00  0.59086569241E+02  0.59556723827E+02  0.74470750000E+01 0. -1.
<mgrwt>
<rscale>  0 0.14937652E+02</rscale>
<asrwt>0</asrwt>
<pdfrwt beam="1">  1        2 0.99172891E+00 0.14937652E+02</pdfrwt>
<pdfrwt beam="2">  1       -2 0.99169040E+00 0.14937652E+02</pdfrwt>
<totfact>-0.88923784E-14</totfact>
</mgrwt>
</event>
<event>
 4    1 -0.5245809E-019  0.1494383E+02  0.7818608E-02  0.1869787E+00
         -2   -1    0    0    0  501 -0.00000000000E+00  0.00000000000E+00  0.11972726376E+03  0.11972726379E+03  0.25500000000E-02 0. -1.
          2   -1    0    0  501    0  0.00000000000E+00 -0.00000000000E+00 -0.46630250394E+00  0.46630947630E+00  0.25500000000E-02 0.  1.
         31    1    1    2    0    0  0.56901050957E+00 -0.18789170798E+00  0.58766418315E+02  0.59239428795E+02  0.74470750000E+01 0.  1.
        -31    1    1    2    0    0 -0.56901050957E+00  0.18789170798E+00  0.60494542940E+02  0.60954144468E+02  0.74470750000E+01 0.  1.
<mgrwt>
<rscale>  0 0.14943834E+02</rscale>
<asrwt>0</asrwt>
<pdfrwt beam="2">  1        2 0.99039853E+00 0.14943834E+02</pdfrwt>
<pdfrwt beam="1">  1       -2 0.99384456E+00 0.14943834E+02</pdfrwt>
<totfact>-0.16650011E-13</totfact>
</mgrwt>
</event>
<event>
 4    1  0.5245809E-019  0.1490931E+02  0.7818608E-02  0.1870849E+00
          2   -1    0    0  501    0  0.00000000000E+00  0.00000000000E+00  0.11975080155E+03  0.11975080158E+03  0.25500000000E-02 0.  1.
         -2   -1    0    0    0  501 -0.00000000000E+00 -0.00000000000E+00 -0.46405909665E+00  0.46406610271E+00  0.25500000000E-02 0. -1.
         31    1    1    2    0    0 -0.34698336508E-01 -0.95295065904E-01  0.62226833169E+02  0.62670950028E+02  0.74470750000E+01 0.  1.
        -31    1    1    2    0    0  0.34698336508E-01  0.95295065904E-01  0.57059909288E+02  0.57543917656E+02  0.74470750000E+01 0. -1.
<mgrwt>
<rscale>  0 0.14909309E+02</rscale>
<asrwt>0</asrwt>
<pdfrwt beam="1">  1        2 0.99402064E+00 0.14909309E+02</pdfrwt>
<pdfrwt beam="2">  1       -2 0.98565289E+00 0.14909309E+02</pdfrwt>
<totfact> 0.43629046E-13</totfact>
</mgrwt>
</event>
<event>
 4    1 -0.5245809E-019  0.1493026E+02  0.7818608E-02  0.1870204E+00
          2   -1    0    0  501    0  0.00000000000E+00  0.00000000000E+00  0.11909535220E+03  0.11909535222E+03  0.25500000000E-02 0.  1.
         -2   -1    0    0    0  501 -0.00000000000E+00 -0.00000000000E+00 -0.46792541273E+00  0.46793236090E+00  0.25500000000E-02 0. -1.
         31    1    1    2    0    0 -0.35049971948E+00 -0.34001647673E+00  0.60718482613E+02  0.61175415963E+02  0.74470750000E+01 0.  1.
        -31    1    1    2    0    0  0.35049971948E+00  0.34001647673E+00  0.57908944169E+02  0.58387868621E+02  0.74470750000E+01 0. -1.
<mgrwt>
<rscale>  0 0.14930259E+02</rscale>
<asrwt>0</asrwt>
<pdfrwt beam="1">  1        2 0.98863289E+00 0.14930259E+02</pdfrwt>
<pdfrwt beam="2">  1       -2 0.99381149E+00 0.14930259E+02</pdfrwt>
<totfact>-0.19926281E-13</totfact>
</mgrwt>
</event>
<event>
 4    1 -0.5245809E-019  0.1498486E+02  0.7818608E-02  0.1868531E+00
         -2   -1    0    0    0  501 -0.00000000000E+00  0.00000000000E+00  0.11935037012E+03  0.11935037014E+03  0.25500000000E-02 0. -1.
          2   -1    0    0  501    0  0.00000000000E+00 -0.00000000000E+00 -0.47034711640E+00  0.47035402880E+00  0.25500000000E-02 0.  1.
         31    1    1    2    0    0  0.46616377783E+00 -0.67594192909E+00  0.58974724858E+02  0.59448728366E+02  0.74470750000E+01 0.  1.
        -31    1    1    2    0    0 -0.46616377783E+00  0.67594192909E+00  0.59905298142E+02  0.60371995807E+02  0.74470750000E+01 0. -1.
<mgrwt>
<rscale>  0 0.14984861E+02</rscale>
<asrwt>0</asrwt>
<pdfrwt beam="2">  1        2 0.99894296E+00 0.14984861E+02</pdfrwt>
<pdfrwt beam="1">  1       -2 0.99076158E+00 0.14984861E+02</pdfrwt>
<totfact>-0.99883309E-15</totfact>
</mgrwt>
</event>
<event>
 4    1  0.5245809E-019  0.1493603E+02  0.7818608E-02  0.1870027E+00
         -2   -1    0    0    0  501 -0.00000000000E+00  0.00000000000E+00  0.11887896343E+03  0.11887896346E+03  0.25500000000E-02 0. -1.
          2   -1    0    0  501    0  0.00000000000E+00 -0.00000000000E+00 -0.46913960106E+00  0.46914653125E+00  0.25500000000E-02 0.  1.
         31    1    1    2    0    0 -0.10402675025E+00 -0.49073003112E-01  0.54834921167E+02  0.55338420064E+02  0.74470750000E+01 0.  1.
        -31    1    1    2    0    0  0.10402675025E+00  0.49073003112E-01  0.63574902664E+02  0.64009689927E+02  0.74470750000E+01 0. -1.
<mgrwt>
<rscale>  0 0.14936030E+02</rscale>
<asrwt>0</asrwt>
<pdfrwt beam="2">  1        2 0.99637300E+00 0.14936030E+02</pdfrwt>
<pdfrwt beam="1">  1       -2 0.98685368E+00 0.14936030E+02</pdfrwt>
<totfact> 0.21773006E-13</totfact>
</mgrwt>
</event>
<event>
 4    1 -0.5245809E-019  0.1491249E+02  0.7818608E-02  0.1870751E+00
          2   -1    0    0  501    0  0.00000000000E+00  0.00000000000E+00  0.11870752065E+03  0.11870752068E+03  0.25500000000E-02 0. -1.
         -2   -1    0    0    0  501 -0.00000000000E+00 -0.00000000000E+00 -0.46833758808E+00  0.46834453013E+00  0.25500000000E-02 0.  1.
         31    1    1    2    0    0  0.54464261086E-01  0.36958176047E-01  0.56212213560E+02  0.56703405644E+02  0.74470750000E+01 0.  1.
        -31    1    1    2    0    0 -0.54464261086E-01 -0.36958176047E-01  0.62026969503E+02  0.62472459564E+02  0.74470750000E+01 0. -1.
<mgrwt>
<rscale>  0 0.14912493E+02</rscale>
<asrwt>0</asrwt>
<pdfrwt beam="1">  1        2 0.98542944E+00 0.14912493E+02</pdfrwt>
<pdfrwt beam="2">  1       -2 0.99467073E+00 0.14912493E+02</pdfrwt>
<totfact>-0.32481930E-13</totfact>
</mgrwt>
</event>
<event>
 4    1 -0.5245809E-019  0.1490685E+02  0.7818608E-02  0.1870924E+00
         -2   -1    0    0    0  501 -0.00000000000E+00  0.00000000000E+00  0.12004348559E+03  0.12004348562E+03  0.25500000000E-02 0. -1.
          2   -1    0    0  501    0  0.00000000000E+00 -0.00000000000E+00 -0.46277506197E+00  0.46278208747E+00  0.25500000000E-02 0.  1.
         31    1    1    2    0    0 -0.49118884556E-01  0.97901278611E-01  0.57466545473E+02  0.57947172252E+02  0.74470750000E+01 0.  1.
        -31    1    1    2    0    0  0.49118884556E-01 -0.97901278611E-01  0.62114165054E+02  0.62559095452E+02  0.74470750000E+01 0. -1.
<mgrwt>
<rscale>  0 0.14906852E+02</rscale>
<asrwt>0</asrwt>
<pdfrwt beam="2">  1        2 0.98294539E+00 0.14906852E+02</pdfrwt>
<pdfrwt beam="1">  1       -2 0.99643014E+00 0.14906852E+02</pdfrwt>
<totfact>-0.43409086E-13</totfact>
</mgrwt>
</event>
<event>
 4    1 -0.5245809E-019  0.1493828E+02  0.7818608E-02  0.1869958E+00
          2   -1    0    0  501    0  0.00000000000E+00  0.00000000000E+00  0.11913954467E+03  0.11913954470E+03  0.25500000000E-02 0. -1.
         -2   -1    0    0    0  501 -0.00000000000E+00 -0.00000000000E+00 -0.46825456062E+00  0.46826150391E+00  0.25500000000E-02 0.  1.
         31    1    1    2    0    0  0.75683621957E-02  0.23539580353E+00  0.63524184399E+02  0.63959646638E+02  0.74470750000E+01 0. -1.
        -31    1    1    2    0    0 -0.75683621957E-02 -0.23539580353E+00  0.55147105709E+02  0.55648159562E+02  0.74470750000E+01 0.  1.
<mgrwt>
<rscale>  0 0.14938280E+02</rscale>
<asrwt>0</asrwt>
<pdfrwt beam="1">  1        2 0.98900103E+00 0.14938280E+02</pdfrwt>
<pdfrwt beam="2">  1       -2 0.99450926E+00 0.14938280E+02</pdfrwt>
<totfact>-0.19804175E-13</totfact>
</mgrwt>
</event>
<event>
 4    1  0.5245809E-019  0.1491494E+02  0.7818608E-02  0.1870675E+00
          2   -1    0    0  501    0  0.00000000000E+00  0.00000000000E+00  0.12015291886E+03  0.12015291889E+03  0.25500000000E-02 0.  1.
         -2   -1    0    0    0  501 -0.00000000000E+00 -0.00000000000E+00 -0.46285534862E+00  0.46286237290E+00  0.25500000000E-02 0. -1.
         31    1    1    2    0    0 -0.25041222365E+00  0.37757814991E-01  0.62281708244E+02  0.62725865795E+02  0.74470750000E+01 0.  1.
        -31    1    1    2    0    0  0.25041222365E+00 -0.37757814991E-01  0.57408355267E+02  0.57889915464E+02  0.74470750000E+01 0. -1.
<mgrwt>
<rscale>  0 0.14914938E+02</rscale>
<asrwt>0</asrwt>
<pdfrwt beam="1">  1        2 0.99733567E+00 0.14914938E+02</pdfrwt>
<pdfrwt beam="2">  1       -2 0.98311870E+00 0.14914938E+02</pdfrwt>
<totfact> 0.52754828E-13</totfact>
</mgrwt>
</event>
<event>
 4    1  0.5245809E-019  0.1493680E+02  0.7818608E-02  0.1870003E+00
          2   -1    0    0  501    0  0.00000000000E+00  0.00000000000E+00  0.11967145684E+03  0.11967145686E+03  0.25500000000E-02 0. -1.
         -2   -1    0    0    0  501 -0.00000000000E+00 -0.00000000000E+00 -0.46608076252E+00  0.46608773819E+00  0.25500000000E-02 0.  1.
         31    1    1    2    0    0  0.41845112656E+00 -0.30257220208E+00  0.61426302705E+02  0.61878237219E+02  0.74470750000E+01 0. -1.
        -31    1    1    2    0    0 -0.41845112656E+00  0.30257220208E+00  0.57779073369E+02  0.58259307383E+02  0.74470750000E+01 0. -1.
<mgrwt>
<rscale>  0 0.14936798E+02</rscale>
<asrwt>0</asrwt>
<pdfrwt beam="1">  1        2 0.99338127E+00 0.14936798E+02</pdfrwt>
<pdfrwt beam="2">  1       -2 0.98992761E+00 0.14936798E+02</pdfrwt>
<totfact> 0.14384221E-14</totfact>
</mgrwt>
</event>
<event>
 4    1  0.5245809E-019  0.1493863E+02  0.7818608E-02  0.1869947E+00
          2   -1    0    0  501    0  0.00000000000E+00  0.00000000000E+00  0.12032402119E+03  0.12032402122E+03  0.25500000000E-02 0. -1.
         -2   -1    0    0    0  501 -0.00000000000E+00 -0.00000000000E+00 -0.46366693166E+00  0.46367394365E+00  0.25500000000E-02 0.  1.
         31    1    1    2    0    0 -0.21636897994E+00 -0.67779611325E-01  0.64211413308E+02  0.64642214804E+02  0.74470750000E+01 0. -1.
        -31    1    1    2    0    0  0.21636897994E+00  0.67779611325E-01  0.55648940953E+02  0.56145480360E+02  0.74470750000E+01 0.  1.
<mgrwt>
<rscale>  0 0.14938634E+02</rscale>
<asrwt>0</asrwt>
<pdfrwt beam="1">  1        2 0.99875717E+00 0.14938634E+02</pdfrwt>
<pdfrwt beam="2">  1       -2 0.98484126E+00 0.14938634E+02</pdfrwt>
<totfact> 0.18811426E-13</totfact>
</mgrwt>
</event>
<event>
 4    1 -0.5245809E-019  0.1499283E+02  0.7818608E-02  0.1868287E+00
          2   -1    0    0  501    0  0.00000000000E+00  0.00000000000E+00  0.11968601494E+03  0.11968601497E+03  0.25500000000E-02 0.  1.
         -2   -1    0    0    0  501 -0.00000000000E+00 -0.00000000000E+00 -0.46952705165E+00  0.46953397612E+00  0.25500000000E-02 0. -1.
         31    1    1    2    0    0 -0.50061655142E+00 -0.25165932596E+00  0.54393690188E+02  0.54903974425E+02  0.74470750000E+01 0. -1.
        -31    1    1    2    0    0  0.50061655142E+00  0.25165932596E+00  0.64822797701E+02  0.65251574519E+02  0.74470750000E+01 0.  1.
<mgrwt>
<rscale>  0 0.14992830E+02</rscale>
<asrwt>0</asrwt>
<pdfrwt beam="1">  1        2 0.99353015E+00 0.14992830E+02</pdfrwt>
<pdfrwt beam="2">  1       -2 0.99721908E+00 0.14992830E+02</pdfrwt>
<totfact>-0.10318255E-13</totfact>
</mgrwt>
</event>
<event>
 4    1 -0.5245809E-019  0.1500823E+02  0.7818608E-02  0.1867818E+00
          2   -1    0    0  501    0  0.00000000000E+00  0.00000000000E+00  0.11975344835E+03  0.11975344838E+03  0.25500000000E-02 0. -1.
         -2   -1    0    0    0  501 -0.00000000000E+00 -0.00000000000E+00 -0.47022686244E+00  0.47023377660E+00  0.25500000000E-02 0.  1.
         31    1    1    2    0    0 -0.57403412461E+00 -0.58125099718E-01  0.65417444153E+02  0.65842492505E+02  0.74470750000E+01 0. -1.
        -31    1    1    2    0    0  0.57403412461E+00  0.58125099718E-01  0.53865777336E+02  0.54381189650E+02  0.74470750000E+01 0.  1.
<mgrwt>
<rscale>  0 0.15008225E+02</rscale>
<asrwt>0</asrwt>
<pdfrwt beam="1">  1        2 0.99409352E+00 0.15008225E+02</pdfrwt>
<pdfrwt beam="2">  1       -2 0.99870176E+00 0.15008225E+02</pdfrwt>
<totfact>-0.53372670E-14</totfact>
</mgrwt>
</event>
<event>
 4    1  0.5245809E-019  0.1492359E+02  0.7818608E-02  0.1870409E+00
         -2   -1    0    0    0  501 -0.00000000000E+00  0.00000000000E+00  0.11879963528E+03  0.11879963530E+03  0.25500000000E-02 0. -1.
          2   -1    0    0  501    0  0.00000000000E+00 -0.00000000000E+00 -0.46867115603E+00  0.46867809315E+00  0.25500000000E-02 0.  1.
         31    1    1    2    0    0 -0.33464058059E-01 -0.32489112289E+00  0.61849362628E+02  0.62296944208E+02  0.74470750000E+01 0. -1.
        -31    1    1    2    0    0  0.33464058059E-01  0.32489112289E+00  0.56481601493E+02  0.56971369190E+02  0.74470750000E+01 0. -1.
<mgrwt>
<rscale>  0 0.14923589E+02</rscale>
<asrwt>0</asrwt>
<pdfrwt beam="2">  1        2 0.99537941E+00 0.14923589E+02</pdfrwt>
<pdfrwt beam="1">  1       -2 0.98619386E+00 0.14923589E+02</pdfrwt>
<totfact> 0.32022902E-13</totfact>
</mgrwt>
</event>
<event>
 4    1 -0.5245809E-019  0.1494854E+02  0.7818608E-02  0.1869643E+00
          2   -1    0    0  501    0  0.00000000000E+00  0.00000000000E+00  0.11896635587E+03  0.11896635590E+03  0.25500000000E-02 0. -1.
         -2   -1    0    0    0  501 -0.00000000000E+00 -0.00000000000E+00 -0.46958081366E+00  0.46958773734E+00  0.25500000000E-02 0.  1.
         31    1    1    2    0    0  0.21058624284E+00  0.35745344641E+00  0.55386015409E+02  0.55885970945E+02  0.74470750000E+01 0.  1.
        -31    1    1    2    0    0 -0.21058624284E+00 -0.35745344641E+00  0.63110759651E+02  0.63549972693E+02  0.74470750000E+01 0.  1.
<mgrwt>
<rscale>  0 0.14948543E+02</rscale>
<asrwt>0</asrwt>
<pdfrwt beam="1">  1        2 0.98757995E+00 0.14948543E+02</pdfrwt>
<pdfrwt beam="2">  1       -2 0.99730924E+00 0.14948543E+02</pdfrwt>
<totfact>-0.17549313E-13</totfact>
</mgrwt>
</event>
<event>
 4    1 -0.5245809E-019  0.1498898E+02  0.7818608E-02  0.1868405E+00
         -2   -1    0    0    0  501 -0.00000000000E+00  0.00000000000E+00  0.11975714684E+03  0.11975714687E+03  0.25500000000E-02 0.  1.
          2   -1    0    0  501    0  0.00000000000E+00 -0.00000000000E+00 -0.46900699397E+00  0.46901392612E+00  0.25500000000E-02 0. -1.
         31    1    1    2    0    0  0.25295833322E+00  0.80243117111E+00  0.59831841947E+02  0.60299387398E+02  0.74470750000E+01 0.  1.
        -31    1    1    2    0    0 -0.25295833322E+00 -0.80243117111E+00  0.59456297904E+02  0.59926773400E+02  0.74470750000E+01 0.  1.
<mgrwt>
<rscale>  0 0.14988977E+02</rscale>
<asrwt>0</asrwt>
<pdfrwt beam="2">  1        2 0.99612118E+00 0.14988977E+02</pdfrwt>
<pdfrwt beam="1">  1       -2 0.99411402E+00 0.14988977E+02</pdfrwt>
<totfact>-0.10212308E-13</totfact>
</mgrwt>
</event>
<event>
 4    1 -0.5245809E-019  0.1495550E+02  0.7818608E-02  0.1869429E+00
          2   -1    0    0  501    0  0.00000000000E+00  0.00000000000E+00  0.11941006029E+03  0.11941006032E+03  0.25500000000E-02 0. -1.
         -2   -1    0    0    0  501 -0.00000000000E+00 -0.00000000000E+00 -0.46827160249E+00  0.46827854553E+00  0.25500000000E-02 0.  1.
         31    1    1    2    0    0 -0.27672839151E+00  0.55427720242E+00  0.57289951933E+02  0.57775265646E+02  0.74470750000E+01 0. -1.
        -31    1    1    2    0    0  0.27672839151E+00 -0.55427720242E+00  0.61651836755E+02  0.62103073218E+02  0.74470750000E+01 0. -1.
<mgrwt>
<rscale>  0 0.14955502E+02</rscale>
<asrwt>0</asrwt>
<pdfrwt beam="1">  1        2 0.99123798E+00 0.14955502E+02</pdfrwt>
<pdfrwt beam="2">  1       -2 0.99455413E+00 0.14955502E+02</pdfrwt>
<totfact>-0.16053083E-13</totfact>
</mgrwt>
</event>
<event>
 4    1  0.5245809E-019  0.1491953E+02  0.7818608E-02  0.1870534E+00
         -2   -1    0    0    0  501 -0.00000000000E+00  0.00000000000E+00  0.11841456854E+03  0.11841456857E+03  0.25500000000E-02 0.  1.
          2   -1    0    0  501    0  0.00000000000E+00 -0.00000000000E+00 -0.46993924588E+00  0.46994616428E+00  0.25500000000E-02 0. -1.
         31    1    1    2    0    0 -0.15306907676E+00  0.18522569656E+00  0.56083831342E+02  0.56576610032E+02  0.74470750000E+01 0. -1.
        -31    1    1    2    0    0  0.15306907676E+00 -0.18522569656E+00  0.61860797956E+02  0.62307904704E+02  0.74470750000E+01 0.  1.
<mgrwt>
<rscale>  0 0.14919526E+02</rscale>
<asrwt>0</asrwt>
<pdfrwt beam="2">  1        2 0.99804918E+00 0.14919526E+02</pdfrwt>
<pdfrwt beam="1">  1       -2 0.98302035E+00 0.14919526E+02</pdfrwt>
<totfact> 0.42704596E-13</totfact>
</mgrwt>
</event>
<event>
 4    1  0.5245809E-019  0.1493923E+02  0.7818608E-02  0.1869929E+00
         -2   -1    0    0    0  501 -0.00000000000E+00  0.00000000000E+00  0.11867494257E+03  0.11867494260E+03  0.25500000000E-02 0. -1.
          2   -1    0    0  501    0  0.00000000000E+00 -0.00000000000E+00 -0.47014768922E+00  0.47015460455E+00  0.25500000000E-02 0.  1.
         31    1    1    2    0    0 -0.44466736185E+00 -0.19708962363E+00  0.56584619405E+02  0.57074641064E+02  0.74470750000E+01 0. -1.
        -31    1    1    2    0    0  0.44466736185E+00  0.19708962363E+00  0.61620175476E+02  0.62070456137E+02  0.74470750000E+01 0. -1.
<mgrwt>
<rscale>  0 0.14939232E+02</rscale>
<asrwt>0</asrwt>
<pdfrwt beam="2">  1        2 0.99849878E+00 0.14939232E+02</pdfrwt>
<pdfrwt beam="1">  1       -2 0.98517503E+00 0.14939232E+02</pdfrwt>
<totfact> 0.20089365E-13</totfact>
</mgrwt>
</event>
<event>
 4    1 -0.5245809E-019  0.1495338E+02  0.7818608E-02  0.1869494E+00
         -2   -1    0    0    0  501 -0.00000000000E+00  0.00000000000E+00  0.11989315432E+03  0.11989315435E+03  0.25500000000E-02 0.  1.
          2   -1    0    0  501    0  0.00000000000E+00 -0.00000000000E+00 -0.46625250280E+00  0.46625947590E+00  0.25500000000E-02 0. -1.
         31    1    1    2    0    0  0.44192372337E+00  0.49605677706E+00  0.59514723657E+02  0.59982519345E+02  0.74470750000E+01 0.  1.
        -31    1    1    2    0    0 -0.44192372337E+00 -0.49605677706E+00  0.59912178164E+02  0.60376894482E+02  0.74470750000E+01 0.  1.
<mgrwt>
<rscale>  0 0.14953381E+02</rscale>
<asrwt>0</asrwt>
<pdfrwt beam="2">  1        2 0.99029806E+00 0.14953381E+02</pdfrwt>
<pdfrwt beam="1">  1       -2 0.99521584E+00 0.14953381E+02</pdfrwt>
<totfact>-0.17253252E-13</totfact>
</mgrwt>
</event>
<event>
 4    1  0.5245809E-019  0.1490295E+02  0.7818608E-02  0.1871044E+00
         -2   -1    0    0    0  501 -0.00000000000E+00  0.00000000000E+00  0.11879693237E+03  0.11879693240E+03  0.25500000000E-02 0.  1.
          2   -1    0    0  501    0  0.00000000000E+00 -0.00000000000E+00 -0.46738653763E+00  0.46739349381E+00  0.25500000000E-02 0. -1.
         31    1    1    2    0    0  0.32760154849E-01  0.18907458987E+00  0.57807729084E+02  0.58285755466E+02  0.74470750000E+01 0. -1.
        -31    1    1    2    0    0 -0.32760154849E-01 -0.18907458987E+00  0.60521816753E+02  0.60978570429E+02  0.74470750000E+01 0.  1.
<mgrwt>
<rscale>  0 0.14902953E+02</rscale>
<asrwt>0</asrwt>
<pdfrwt beam="2">  1        2 0.99266174E+00 0.14902953E+02</pdfrwt>
<pdfrwt beam="1">  1       -2 0.98616089E+00 0.14902953E+02</pdfrwt>
<totfact> 0.40851168E-13</totfact>
</mgrwt>
</event>
<event>
 4    1  0.5245809E-019  0.1493426E+02  0.7818608E-02  0.1870081E+00
         -2   -1    0    0    0  501 -0.00000000000E+00  0.00000000000E+00  0.11902490466E+03  0.11902490469E+03  0.25500000000E-02 0.  1.
          2   -1    0    0  501    0  0.00000000000E+00 -0.00000000000E+00 -0.46845354779E+00  0.46846048813E+00  0.25500000000E-02 0. -1.
         31    1    1    2    0    0  0.17824642308E+00 -0.14678800716E+00  0.55311243034E+02  0.55810804067E+02  0.74470750000E+01 0. -1.
        -31    1    1    2    0    0 -0.17824642308E+00  0.14678800716E+00  0.63245208078E+02  0.63682561108E+02  0.74470750000E+01 0.  1.
<mgrwt>
<rscale>  0 0.14934263E+02</rscale>
<asrwt>0</asrwt>
<pdfrwt beam="2">  1        2 0.99492646E+00 0.14934263E+02</pdfrwt>
<pdfrwt beam="1">  1       -2 0.98805475E+00 0.14934263E+02</pdfrwt>
<totfact> 0.14769420E-13</totfact>
</mgrwt>
</event>
<event>
 4    1 -0.5245809E-019  0.1499252E+02  0.7818608E-02  0.1868297E+00
          2   -1    0    0  501    0  0.00000000000E+00  0.00000000000E+00  0.12020302532E+03  0.12020302534E+03  0.25500000000E-02 0.  1.
         -2   -1    0    0    0  501 -0.00000000000E+00 -0.00000000000E+00 -0.46748833901E+00  0.46749529368E+00  0.25500000000E-02 0. -1.
         31    1    1    2    0    0  0.30522476948E-01  0.54875647646E+00  0.65163690804E+02  0.65590148578E+02  0.74470750000E+01 0.  1.
        -31    1    1    2    0    0 -0.30522476948E-01 -0.54875647646E+00  0.54571846174E+02  0.55080372060E+02  0.74470750000E+01 0. -1.
<mgrwt>
<rscale>  0 0.14992523E+02</rscale>
<asrwt>0</asrwt>
<pdfrwt beam="1">  1        2 0.99778829E+00 0.14992523E+02</pdfrwt>
<pdfrwt beam="2">  1       -2 0.99292263E+00 0.14992523E+02</pdfrwt>
<totfact>-0.60504561E-14</totfact>
</mgrwt>
</event>
<event>
 4    1  0.5245809E-019  0.1492953E+02  0.7818608E-02  0.1870227E+00
          2   -1    0    0  501    0  0.00000000000E+00  0.00000000000E+00  0.12011060755E+03  0.12011060758E+03  0.25500000000E-02 0. -1.
         -2   -1    0    0    0  501 -0.00000000000E+00 -0.00000000000E+00 -0.46392481168E+00  0.46393181977E+00  0.25500000000E-02 0.  1.
         31    1    1    2    0    0 -0.63745092615E-01  0.31623137491E+00  0.63051045191E+02  0.63490135387E+02  0.74470750000E+01 0. -1.
        -31    1    1    2    0    0  0.63745092615E-01 -0.31623137491E+00  0.56595637545E+02  0.57084404008E+02  0.74470750000E+01 0.  1.
<mgrwt>
<rscale>  0 0.14929530E+02</rscale>
<asrwt>0</asrwt>
<pdfrwt beam="1">  1        2 0.99699465E+00 0.14929530E+02</pdfrwt>
<pdfrwt beam="2">  1       -2 0.98538016E+00 0.14929530E+02</pdfrwt>
<totfact> 0.32078407E-13</totfact>
</mgrwt>
</event>
<event>
 4    1 -0.5245809E-019  0.1495014E+02  0.7818608E-02  0.1869594E+00
         -2   -1    0    0    0  501 -0.00000000000E+00  0.00000000000E+00  0.11937577075E+03  0.11937577077E+03  0.25500000000E-02 0.  1.
          2   -1    0    0  501    0  0.00000000000E+00 -0.00000000000E+00 -0.46807020281E+00  0.46807714883E+00  0.25500000000E-02 0. -1.
         31    1    1    2    0    0  0.13855199056E+00  0.50263580817E+00  0.56391966734E+02  0.56883957999E+02  0.74470750000E+01 0. -1.
        -31    1    1    2    0    0 -0.13855199056E+00 -0.50263580817E+00  0.62515733809E+02  0.62959889923E+02  0.74470750000E+01 0. -1.
<mgrwt>
<rscale>  0 0.14950138E+02</rscale>
<asrwt>0</asrwt>
<pdfrwt beam="2">  1        2 0.99412694E+00 0.14950138E+02</pdfrwt>
<pdfrwt beam="1">  1       -2 0.99095279E+00 0.14950138E+02</pdfrwt>
<totfact>-0.43018392E-14</totfact>
</mgrwt>
</event>
<event>
 4    1  0.5245809E-019  0.1491013E+02  0.7818608E-02  0.1870823E+00
          2   -1    0    0  501    0  0.00000000000E+00  0.00000000000E+00  0.11948667210E+03  0.11948667212E+03  0.25500000000E-02 0. -1.
         -2   -1    0    0    0  501 -0.00000000000E+00 -0.00000000000E+00 -0.46513612426E+00  0.46514311409E+00  0.25500000000E-02 0.  1.
         31    1    1    2    0    0 -0.37373895384E-01 -0.14567733057E+00  0.62009169698E+02  0.62454933123E+02  0.74470750000E+01 0. -1.
        -31    1    1    2    0    0  0.37373895384E-01  0.14567733057E+00  0.57012366274E+02  0.57496882115E+02  0.74470750000E+01 0.  1.
<mgrwt>
<rscale>  0 0.14910129E+02</rscale>
<asrwt>0</asrwt>
<pdfrwt beam="1">  1        2 0.99184553E+00 0.14910129E+02</pdfrwt>
<pdfrwt beam="2">  1       -2 0.98792314E+00 0.14910129E+02</pdfrwt>
<totfact> 0.20276965E-13</totfact>
</mgrwt>
</event>
<event>
 4    1  0.5245809E-019  0.1495324E+02  0.7818608E-02  0.1869499E+00
         -2   -1    0    0    0  501 -0.00000000000E+00  0.00000000000E+00  0.11886961293E+03  0.11886961296E+03  0.25500000000E-02 0. -1.
          2   -1    0    0  501    0  0.00000000000E+00 -0.00000000000E+00 -0.47025831924E+00  0.47026523294E+00  0.25500000000E-02 0.  1.
         31    1    1    2    0    0  0.60964979008E+00  0.32720521374E-01  0.57115936052E+02  0.57602619911E+02  0.74470750000E+01 0. -1.
        -31    1    1    2    0    0 -0.60964979008E+00 -0.32720521374E-01  0.61283418559E+02  0.61737258280E+02  0.74470750000E+01 0. -1.
<mgrwt>
<rscale>  0 0.14953239E+02</rscale>
<asrwt>0</asrwt>
<pdfrwt beam="2">  1        2 0.99873926E+00 0.14953239E+02</pdfrwt>
<pdfrwt beam="1">  1       -2 0.98678561E+00 0.14953239E+02</pdfrwt>
<totfact> 0.10075738E-13</totfact>
</mgrwt>
</event>
<event>
 4    1  0.5245809E-019  0.1489698E+02  0.7818608E-02  0.1871229E+00
          2   -1    0    0  501    0  0.00000000000E+00  0.00000000000E+00  0.12019791080E+03  0.12019791083E+03  0.25500000000E-02 0. -1.
         -2   -1    0    0    0  501 -0.00000000000E+00 -0.00000000000E+00 -0.46156833523E+00  0.46157537910E+00  0.25500000000E-02 0.  1.
         31    1    1    2    0    0 -0.60859417315E-03 -0.13632162589E+00  0.59465941501E+02  0.59930590758E+02  0.74470750000E+01 0.  1.
        -31    1    1    2    0    0  0.60859417315E-03  0.13632162589E+00  0.60270400966E+02  0.60728895451E+02  0.74470750000E+01 0. -1.
<mgrwt>
<rscale>  0 0.14896976E+02</rscale>
<asrwt>0</asrwt>
<pdfrwt beam="1">  1        2 0.99769705E+00 0.14896976E+02</pdfrwt>
<pdfrwt beam="2">  1       -2 0.98039695E+00 0.14896976E+02</pdfrwt>
<totfact> 0.80835112E-13</totfact>
</mgrwt>
</event>
<event>
 4    1  0.5245809E-019  0.1491901E+02  0.7818608E-02  0.1870550E+00
          2   -1    0    0  501    0  0.00000000000E+00  0.00000000000E+00  0.12028905732E+03  0.12028905734E+03  0.25500000000E-02 0. -1.
         -2   -1    0    0    0  501 -0.00000000000E+00 -0.00000000000E+00 -0.46258396094E+00  0.46259098934E+00  0.25500000000E-02 0.  1.
         31    1    1    2    0    0  0.37097019833E+00  0.59996054053E-02  0.58146751901E+02  0.58622873843E+02  0.74470750000E+01 0.  1.
        -31    1    1    2    0    0 -0.37097019833E+00 -0.59996054053E-02  0.61679721454E+02  0.62128774489E+02  0.74470750000E+01 0. -1.
<mgrwt>
<rscale>  0 0.14919010E+02</rscale>
<asrwt>0</asrwt>
<pdfrwt beam="1">  1        2 0.99845911E+00 0.14919010E+02</pdfrwt>
<pdfrwt beam="2">  1       -2 0.98254875E+00 0.14919010E+02</pdfrwt>
<totfact> 0.39063180E-13</totfact>
</mgrwt>
</event>
<event>
 4    1 -0.5245809E-019  0.1497757E+02  0.7818608E-02  0.1868754E+00
         -2   -1    0    0    0  501 -0.00000000000E+00  0.00000000000E+00  0.11931339129E+03  0.11931339132E+03  0.25500000000E-02 0.  1.
          2   -1    0    0  501    0  0.00000000000E+00 -0.00000000000E+00 -0.47003502564E+00  0.47004194262E+00  0.25500000000E-02 0. -1.
         31    1    1    2    0    0 -0.13274637350E+00 -0.48462663566E+00  0.64289523535E+02  0.64721358507E+02  0.74470750000E+01 0.  1.
        -31    1    1    2    0    0  0.13274637350E+00  0.48462663566E+00  0.54553832731E+02  0.55062074755E+02  0.74470750000E+01 0. -1.
<mgrwt>
<rscale>  0 0.14977568E+02</rscale>
<asrwt>0</asrwt>
<pdfrwt beam="2">  1        2 0.99828152E+00 0.14977568E+02</pdfrwt>
<pdfrwt beam="1">  1       -2 0.99045323E+00 0.14977568E+02</pdfrwt>
<totfact>-0.77892598E-15</totfact>
</mgrwt>
</event>
<event>
 4    1  0.5245809E-019  0.1493177E+02  0.7818608E-02  0.1870158E+00
         -2   -1    0    0    0  501 -0.00000000000E+00  0.00000000000E+00  0.11854879706E+03  0.11854879709E+03  0.25500000000E-02 0.  1.
          2   -1    0    0  501    0  0.00000000000E+00 -0.00000000000E+00 -0.47017780410E+00  0.47018471899E+00  0.25500000000E-02 0. -1.
         31    1    1    2    0    0 -0.45344228875E+00  0.24119494304E+00  0.60069841428E+02  0.60531880527E+02  0.74470750000E+01 0. -1.
        -31    1    1    2    0    0  0.45344228875E+00 -0.24119494304E+00  0.58008777827E+02  0.58487101278E+02  0.74470750000E+01 0. -1.
<mgrwt>
<rscale>  0 0.14931768E+02</rscale>
<asrwt>0</asrwt>
<pdfrwt beam="2">  1        2 0.99855829E+00 0.14931768E+02</pdfrwt>
<pdfrwt beam="1">  1       -2 0.98413221E+00 0.14931768E+02</pdfrwt>
<totfact> 0.25721172E-13</totfact>
</mgrwt>
</event>
<event>
 4    1 -0.5245809E-019  0.1498350E+02  0.7818608E-02  0.1868572E+00
         -2   -1    0    0    0  501 -0.00000000000E+00  0.00000000000E+00  0.12000146649E+03  0.12000146652E+03  0.25500000000E-02 0. -1.
          2   -1    0    0  501    0  0.00000000000E+00 -0.00000000000E+00 -0.46771032281E+00  0.46771727418E+00  0.25500000000E-02 0.  1.
         31    1    1    2    0    0  0.32230436667E+00  0.30711890059E+00  0.54259443252E+02  0.54769921583E+02  0.74470750000E+01 0.  1.
        -31    1    1    2    0    0 -0.32230436667E+00 -0.30711890059E+00  0.65274312920E+02  0.65699262213E+02  0.74470750000E+01 0. -1.
<mgrwt>
<rscale>  0 0.14983504E+02</rscale>
<asrwt>0</asrwt>
<pdfrwt beam="2">  1        2 0.99338581E+00 0.14983504E+02</pdfrwt>
<pdfrwt beam="1">  1       -2 0.99612350E+00 0.14983504E+02</pdfrwt>
<totfact>-0.12674924E-13</totfact>
</mgrwt>
</event>
<event>
 4    1  0.5245809E-019  0.1492155E+02  0.7818608E-02  0.1870472E+00
          2   -1    0    0  501    0  0.00000000000E+00  0.00000000000E+00  0.12012555541E+03  0.12012555544E+03  0.25500000000E-02 0.  1.
         -2   -1    0    0    0  501 -0.00000000000E+00 -0.00000000000E+00 -0.46337146440E+00  0.46337848086E+00  0.25500000000E-02 0. -1.
         31    1    1    2    0    0 -0.27211630828E+00  0.33851140600E+00  0.58821195401E+02  0.59292331643E+02  0.74470750000E+01 0. -1.
        -31    1    1    2    0    0  0.27211630828E+00 -0.33851140600E+00  0.60840988546E+02  0.61296602276E+02  0.74470750000E+01 0.  1.
<mgrwt>
<rscale>  0 0.14921552E+02</rscale>
<asrwt>0</asrwt>
<pdfrwt beam="1">  1        2 0.99711368E+00 0.14921552E+02</pdfrwt>
<pdfrwt beam="2">  1       -2 0.98420985E+00 0.14921552E+02</pdfrwt>
<totfact> 0.43063785E-13</totfact>
</mgrwt>
</event>
<event>
 4    1 -0.5245809E-019  0.1496500E+02  0.7818608E-02  0.1869138E+00
         -2   -1    0    0    0  501 -0.00000000000E+00  0.00000000000E+00  0.11978697378E+03  0.11978697380E+03  0.25500000000E-02 0. -1.
          2   -1    0    0  501    0  0.00000000000E+00 -0.00000000000E+00 -0.46739130327E+00  0.46739825938E+00  0.25500000000E-02 0.  1.
         31    1    1    2    0    0 -0.54559432222E+00 -0.69692475833E-01  0.63482908869E+02  0.63920584906E+02  0.74470750000E+01 0.  1.
        -31    1    1    2    0    0  0.54559432222E+00  0.69692475833E-01  0.55836673604E+02  0.56333787157E+02  0.74470750000E+01 0.  1.
<mgrwt>
<rscale>  0 0.14965000E+02</rscale>
<asrwt>0</asrwt>
<pdfrwt beam="2">  1        2 0.99270397E+00 0.14965000E+02</pdfrwt>
<pdfrwt beam="1">  1       -2 0.99434729E+00 0.14965000E+02</pdfrwt>
<totfact>-0.14325964E-13</totfact>
</mgrwt>
</event>
<event>
 4    1  0.5245809E-019  0.1490604E+02  0.7818608E-02  0.1870949E+00
          2   -1    0    0  501    0  0.00000000000E+00  0.00000000000E+00  0.11960151097E+03  0.11960151100E+03  0.25500000000E-02 0. -1.
         -2   -1    0    0    0  501 -0.00000000000E+00 -0.00000000000E+00 -0.46443437059E+00  0.46444137099E+00  0.25500000000E-02 0.  1.
         31    1    1    2    0    0  0.43561042547E-01 -0.60694101243E-01  0.61888657589E+02  0.62335146151E+02  0.74470750000E+01 0. -1.
        -31    1    1    2    0    0 -0.43561042547E-01  0.60694101243E-01  0.57248419014E+02  0.57730806221E+02  0.74470750000E+01 0.  1.
<mgrwt>
<rscale>  0 0.14906036E+02</rscale>
<asrwt>0</asrwt>
<pdfrwt beam="1">  1        2 0.99278930E+00 0.14906036E+02</pdfrwt>
<pdfrwt beam="2">  1       -2 0.98644211E+00 0.14906036E+02</pdfrwt>
<totfact> 0.36628657E-13</totfact>
</mgrwt>
</event>
<event>
 4    1 -0.5245809E-019  0.1492320E+02  0.7818608E-02  0.1870421E+00
          2   -1    0    0  501    0  0.00000000000E+00  0.00000000000E+00  0.11889887425E+03  0.11889887428E+03  0.25500000000E-02 0. -1.
         -2   -1    0    0    0  501 -0.00000000000E+00 -0.00000000000E+00 -0.46825572321E+00  0.46826266648E+00  0.25500000000E-02 0.  1.
         31    1    1    2    0    0  0.27341901041E+00  0.37587577726E+00  0.59031551694E+02  0.59501252609E+02  0.74470750000E+01 0.  1.
        -31    1    1    2    0    0 -0.27341901041E+00 -0.37587577726E+00  0.59399066831E+02  0.59865884334E+02  0.74470750000E+01 0.  1.
<mgrwt>
<rscale>  0 0.14923203E+02</rscale>
<asrwt>0</asrwt>
<pdfrwt beam="1">  1        2 0.98701101E+00 0.14923203E+02</pdfrwt>
<pdfrwt beam="2">  1       -2 0.99450383E+00 0.14923203E+02</pdfrwt>
<totfact>-0.25515997E-13</totfact>
</mgrwt>
</event>
<event>
 4    1  0.5245809E-019  0.1494402E+02  0.7818608E-02  0.1869782E+00
          2   -1    0    0  501    0  0.00000000000E+00  0.00000000000E+00  0.12024713442E+03  0.12024713445E+03  0.25500000000E-02 0.  1.
         -2   -1    0    0    0  501 -0.00000000000E+00 -0.00000000000E+00 -0.46429801033E+00  0.46430501278E+00  0.25500000000E-02 0. -1.
         31    1    1    2    0    0  0.19726765039E+00 -0.55327357584E+00  0.61218141131E+02  0.61672236506E+02  0.74470750000E+01 0.  1.
        -31    1    1    2    0    0 -0.19726765039E+00  0.55327357584E+00  0.58564695281E+02  0.59039202956E+02  0.74470750000E+01 0.  1.
<mgrwt>
<rscale>  0 0.14944019E+02</rscale>
<asrwt>0</asrwt>
<pdfrwt beam="1">  1        2 0.99812664E+00 0.14944019E+02</pdfrwt>
<pdfrwt beam="2">  1       -2 0.98617409E+00 0.14944019E+02</pdfrwt>
<totfact> 0.17536757E-13</totfact>
</mgrwt>
</event>
<event>
 4    1 -0.5245809E-019  0.1495770E+02  0.7818608E-02  0.1869362E+00
          2   -1    0    0  501    0  0.00000000000E+00  0.00000000000E+00  0.11959667010E+03  0.11959667012E+03  0.25500000000E-02 0.  1.
         -2   -1    0    0    0  501 -0.00000000000E+00 -0.00000000000E+00 -0.46767866598E+00  0.46768561781E+00  0.25500000000E-02 0. -1.
         31    1    1    2    0    0 -0.11158915063E+00  0.41640724304E+00  0.63875610829E+02  0.64309707137E+02  0.74470750000E+01 0.  1.
        -31    1    1    2    0    0  0.11158915063E+00 -0.41640724304E+00  0.55253380602E+02  0.55754648606E+02  0.74470750000E+01 0. -1.
<mgrwt>
<rscale>  0 0.14957704E+02</rscale>
<asrwt>0</asrwt>
<pdfrwt beam="1">  1        2 0.99277610E+00 0.14957704E+02</pdfrwt>
<pdfrwt beam="2">  1       -2 0.99330578E+00 0.14957704E+02</pdfrwt>
<totfact>-0.13045950E-13</totfact>
</mgrwt>
</event>
<event>
 4    1  0.5245809E-019  0.1490127E+02  0.7818608E-02  0.1871096E+00
          2   -1    0    0  501    0  0.00000000000E+00  0.00000000000E+00  0.11970138471E+03  0.11970138474E+03  0.25500000000E-02 0.  1.
         -2   -1    0    0    0  501 -0.00000000000E+00 -0.00000000000E+00 -0.46375047071E+00  0.46375748143E+00  0.25500000000E-02 0. -1.
         31    1    1    2    0    0 -0.21347275803E+00  0.80178199489E-01  0.59354893452E+02  0.59820684566E+02  0.74470750000E+01 0. -1.
        -31    1    1    2    0    0  0.21347275803E+00 -0.80178199489E-01  0.59882740788E+02  0.60344457654E+02  0.74470750000E+01 0.  1.
<mgrwt>
<rscale>  0 0.14901275E+02</rscale>
<asrwt>0</asrwt>
<pdfrwt beam="1">  1        2 0.99360947E+00 0.14901275E+02</pdfrwt>
<pdfrwt beam="2">  1       -2 0.98499834E+00 0.14901275E+02</pdfrwt>
<totfact> 0.54758291E-13</totfact>
</mgrwt>
</event>
<event>
 4    1  0.5245809E-019  0.1491653E+02  0.7818608E-02  0.1870626E+00
          2   -1    0    0  501    0  0.00000000000E+00  0.00000000000E+00  0.12010639133E+03  0.12010639135E+03  0.25500000000E-02 0. -1.
         -2   -1    0    0    0  501 -0.00000000000E+00 -0.00000000000E+00 -0.46313329842E+00  0.46314031849E+00  0.25500000000E-02 0.  1.
         31    1    1    2    0    0  0.57452044731E-01 -0.91979851179E-01  0.56639297584E+02  0.57126882620E+02  0.74470750000E+01 0.  1.
        -31    1    1    2    0    0 -0.57452044731E-01  0.91979851179E-01  0.63003960443E+02  0.63442649051E+02  0.74470750000E+01 0. -1.
<mgrwt>
<rscale>  0 0.14916527E+02</rscale>
<asrwt>0</asrwt>
<pdfrwt beam="1">  1        2 0.99695325E+00 0.14916527E+02</pdfrwt>
<pdfrwt beam="2">  1       -2 0.98370533E+00 0.14916527E+02</pdfrwt>
<totfact> 0.50559461E-13</totfact>
</mgrwt>
</event>
<event>
 4    1 -0.5245809E-019  0.1493644E+02  0.7818608E-02  0.1870014E+00
          2   -1    0    0  501    0  0.00000000000E+00  0.00000000000E+00  0.11879845796E+03  0.11879845799E+03  0.25500000000E-02 0.  1.
         -2   -1    0    0    0  501 -0.00000000000E+00 -0.00000000000E+00 -0.46948317370E+00  0.46949009882E+00  0.25500000000E-02 0. -1.
         31    1    1    2    0    0 -0.37705547186E+00 -0.19722350771E+00  0.62090734368E+02  0.62537183246E+02  0.74470750000E+01 0.  1.
        -31    1    1    2    0    0  0.37705547186E+00  0.19722350771E+00  0.56238240418E+02  0.56730764840E+02  0.74470750000E+01 0. -1.
<mgrwt>
<rscale>  0 0.14936438E+02</rscale>
<asrwt>0</asrwt>
<pdfrwt beam="1">  1        2 0.98619084E+00 0.14936438E+02</pdfrwt>
<pdfrwt beam="2">  1       -2 0.99709715E+00 0.14936438E+02</pdfrwt>
<totfact>-0.22560820E-13</totfact>
</mgrwt>
</event>
<event>
 4    1  0.5245809E-019  0.1491719E+02  0.7818608E-02  0.1870606E+00
          2   -1    0    0  501    0  0.00000000000E+00  0.00000000000E+00  0.12021346928E+03  0.12021346931E+03  0.25500000000E-02 0. -1.
         -2   -1    0    0    0  501 -0.00000000000E+00 -0.00000000000E+00 -0.46276194508E+00  0.46276897077E+00  0.25500000000E-02 0.  1.
         31    1    1    2    0    0  0.25793557471E+00 -0.98262677459E-01  0.62375752378E+02  0.62819340948E+02  0.74470750000E+01 0. -1.
        -31    1    1    2    0    0 -0.25793557471E+00  0.98262677459E-01  0.57374954957E+02  0.57856897330E+02  0.74470750000E+01 0.  1.
<mgrwt>
<rscale>  0 0.14917191E+02</rscale>
<asrwt>0</asrwt>
<pdfrwt beam="1">  1        2 0.99783557E+00 0.14917191E+02</pdfrwt>
<pdfrwt beam="2">  1       -2 0.98292297E+00 0.14917191E+02</pdfrwt>
<totfact> 0.47273295E-13</totfact>
</mgrwt>
</event>
<event>
 4    1 -0.5245809E-019  0.1491805E+02  0.7818608E-02  0.1870580E+00
         -2   -1    0    0    0  501 -0.00000000000E+00  0.00000000000E+00  0.11984143028E+03  0.11984143031E+03  0.25500000000E-02 0. -1.
          2   -1    0    0  501    0  0.00000000000E+00 -0.00000000000E+00 -0.46425189709E+00  0.46425890024E+00  0.25500000000E-02 0.  1.
         31    1    1    2    0    0  0.13516002236E+00 -0.77666178957E-01  0.56525848822E+02  0.57014514041E+02  0.74470750000E+01 0.  1.
        -31    1    1    2    0    0 -0.13516002236E+00  0.77666178957E-01  0.62851329561E+02  0.63291175166E+02  0.74470750000E+01 0. -1.
<mgrwt>
<rscale>  0 0.14918047E+02</rscale>
<asrwt>0</asrwt>
<pdfrwt beam="2">  1        2 0.98606368E+00 0.14918047E+02</pdfrwt>
<pdfrwt beam="1">  1       -2 0.99477161E+00 0.14918047E+02</pdfrwt>
<totfact>-0.29425020E-13</totfact>
</mgrwt>
</event>
<event>
 4    1 -0.5245809E-019  0.1499599E+02  0.7818608E-02  0.1868191E+00
          2   -1    0    0  501    0  0.00000000000E+00  0.00000000000E+00  0.12012388881E+03  0.12012388884E+03  0.25500000000E-02 0.  1.
         -2   -1    0    0    0  501 -0.00000000000E+00 -0.00000000000E+00 -0.46801261005E+00  0.46801955692E+00  0.25500000000E-02 0. -1.
         31    1    1    2    0    0  0.62921240568E+00  0.60360430524E+00  0.59608773951E+02  0.60078491196E+02  0.74470750000E+01 0.  1.
        -31    1    1    2    0    0 -0.62921240568E+00 -0.60360430524E+00  0.60047102250E+02  0.60513417199E+02  0.74470750000E+01 0. -1.
<mgrwt>
<rscale>  0 0.14995988E+02</rscale>
<asrwt>0</asrwt>
<pdfrwt beam="1">  1        2 0.99713827E+00 0.14995988E+02</pdfrwt>
<pdfrwt beam="2">  1       -2 0.99402928E+00 0.14995988E+02</pdfrwt>
<totfact>-0.83587060E-14</totfact>
</mgrwt>
</event>
<event>
 4    1 -0.5245809E-019  0.1489903E+02  0.7818608E-02  0.1871165E+00
          2   -1    0    0  501    0  0.00000000000E+00  0.00000000000E+00  0.11790511036E+03  0.11790511039E+03  0.25500000000E-02 0. -1.
         -2   -1    0    0    0  501 -0.00000000000E+00 -0.00000000000E+00 -0.47067418466E+00  0.47068109225E+00  0.25500000000E-02 0.  1.
         31    1    1    2    0    0  0.14318380818E+00 -0.83716198978E-01  0.57969098136E+02  0.58445725035E+02  0.74470750000E+01 0.  1.
        -31    1    1    2    0    0 -0.14318380818E+00  0.83716198978E-01  0.59465338043E+02  0.59930066450E+02  0.74470750000E+01 0. -1.
<mgrwt>
<rscale>  0 0.14899034E+02</rscale>
<asrwt>0</asrwt>
<pdfrwt beam="1">  1        2 0.97881387E+00 0.14899034E+02</pdfrwt>
<pdfrwt beam="2">  1       -2 0.99958673E+00 0.14899034E+02</pdfrwt>
<totfact>-0.13639139E-13</totfact>
</mgrwt>
</event>
<event>
 4    1 -0.5245809E-019  0.1498685E+02  0.7818608E-02  0.1868470E+00
          2   -1    0    0  501    0  0.00000000000E+00  0.00000000000E+00  0.11952967073E+03  0.11952967076E+03  0.25500000000E-02 0. -1.
         -2   -1    0    0    0  501 -0.00000000000E+00 -0.00000000000E+00 -0.46976599825E+00  0.46977291919E+00  0.25500000000E-02 0.  1.
         31    1    1    2    0    0 -0.11390945785E+00 -0.76890206324E+00  0.57150918812E+02  0.57639314993E+02  0.74470750000E+01 0.  1.
        -31    1    1    2    0    0  0.11390945785E+00  0.76890206324E+00  0.61908985922E+02  0.62360128686E+02  0.74470750000E+01 0. -1.
<mgrwt>
<rscale>  0 0.14986846E+02</rscale>
<asrwt>0</asrwt>
<pdfrwt beam="1">  1        2 0.99223936E+00 0.14986846E+02</pdfrwt>
<pdfrwt beam="2">  1       -2 0.99771948E+00 0.14986846E+02</pdfrwt>
<totfact>-0.98038726E-14</totfact>
</mgrwt>
</event>
<event>
 4    1  0.5245809E-019  0.1489783E+02  0.7818608E-02  0.1871202E+00
          2   -1    0    0  501    0  0.00000000000E+00  0.00000000000E+00  0.11990762731E+03  0.11990762734E+03  0.25500000000E-02 0. -1.
         -2   -1    0    0    0  501 -0.00000000000E+00 -0.00000000000E+00 -0.46273898531E+00  0.46274601135E+00  0.25500000000E-02 0.  1.
         31    1    1    2    0    0 -0.75840177246E-01  0.14693769894E+00  0.59645872911E+02  0.60109204152E+02  0.74470750000E+01 0.  1.
        -31    1    1    2    0    0  0.75840177246E-01 -0.14693769894E+00  0.59799015415E+02  0.60261169198E+02  0.74470750000E+01 0.  1.
<mgrwt>
<rscale>  0 0.14897833E+02</rscale>
<asrwt>0</asrwt>
<pdfrwt beam="1">  1        2 0.99530647E+00 0.14897833E+02</pdfrwt>
<pdfrwt beam="2">  1       -2 0.98286478E+00 0.14897833E+02</pdfrwt>
<totfact> 0.79342320E-13</totfact>
</mgrwt>
</event>
<event>
 4    1 -0.5245809E-019  0.1501167E+02  0.7818608E-02  0.1867712E+00
         -2   -1    0    0    0  501 -0.00000000000E+00  0.00000000000E+00  0.11986803328E+03  0.11986803331E+03  0.25500000000E-02 0. -1.
          2   -1    0    0  501    0  0.00000000000E+00 -0.00000000000E+00 -0.46999328600E+00  0.47000020360E+00  0.25500000000E-02 0.  1.
         31    1    1    2    0    0  0.47871307917E+00  0.48647947877E+00  0.54548375241E+02  0.55058605104E+02  0.74470750000E+01 0. -1.
        -31    1    1    2    0    0 -0.47871307917E+00 -0.48647947877E+00  0.64849664754E+02  0.65279428408E+02  0.74470750000E+01 0. -1.
<mgrwt>
<rscale>  0 0.15011674E+02</rscale>
<asrwt>0</asrwt>
<pdfrwt beam="2">  1        2 0.99821135E+00 0.15011674E+02</pdfrwt>
<pdfrwt beam="1">  1       -2 0.99503906E+00 0.15011674E+02</pdfrwt>
<totfact>-0.59903569E-14</totfact>
</mgrwt>
</event>
<event>
 4    1  0.5245809E-019  0.1491335E+02  0.7818608E-02  0.1870724E+00
         -2   -1    0    0    0  501 -0.00000000000E+00  0.00000000000E+00  0.11824764796E+03  0.11824764799E+03  0.25500000000E-02 0.  1.
          2   -1    0    0  501    0  0.00000000000E+00 -0.00000000000E+00 -0.47021287163E+00  0.47021978600E+00  0.25500000000E-02 0. -1.
         31    1    1    2    0    0  0.16368952192E+00 -0.18934601752E+00  0.61145995535E+02  0.61598330677E+02  0.74470750000E+01 0.  1.
        -31    1    1    2    0    0 -0.16368952192E+00  0.18934601752E+00  0.56631439554E+02  0.57119537098E+02  0.74470750000E+01 0.  1.
<mgrwt>
<rscale>  0 0.14913347E+02</rscale>
<asrwt>0</asrwt>
<pdfrwt beam="2">  1        2 0.99862242E+00 0.14913347E+02</pdfrwt>
<pdfrwt beam="1">  1       -2 0.98164239E+00 0.14913347E+02</pdfrwt>
<totfact> 0.42663717E-13</totfact>
</mgrwt>
</event>
<event>
 4    1  0.5245809E-019  0.1491678E+02  0.7818608E-02  0.1870619E+00
          2   -1    0    0  501    0  0.00000000000E+00  0.00000000000E+00  0.12010792263E+03  0.12010792266E+03  0.25500000000E-02 0.  1.
         -2   -1    0    0    0  501 -0.00000000000E+00 -0.00000000000E+00 -0.46314314138E+00  0.46315016130E+00  0.25500000000E-02 0. -1.
         31    1    1    2    0    0 -0.11397760226E+00  0.27781360918E+00  0.57557902604E+02  0.58038446306E+02  0.74470750000E+01 0. -1.
        -31    1    1    2    0    0  0.11397760226E+00 -0.27781360918E+00  0.62086876887E+02  0.62532626515E+02  0.74470750000E+01 0.  1.
<mgrwt>
<rscale>  0 0.14916781E+02</rscale>
<asrwt>0</asrwt>
<pdfrwt beam="1">  1        2 0.99696599E+00 0.14916781E+02</pdfrwt>
<pdfrwt beam="2">  1       -2 0.98372621E+00 0.14916781E+02</pdfrwt>
<totfact> 0.50167537E-13</totfact>
</mgrwt>
</event>
<event>
 4    1 -0.5245809E-019  0.1492469E+02  0.7818608E-02  0.1870375E+00
          2   -1    0    0  501    0  0.00000000000E+00  0.00000000000E+00  0.11887922055E+03  0.11887922057E+03  0.25500000000E-02 0.  1.
         -2   -1    0    0    0  501 -0.00000000000E+00 -0.00000000000E+00 -0.46842622442E+00  0.46843316516E+00  0.25500000000E-02 0. -1.
         31    1    1    2    0    0 -0.31877795515E-02 -0.89153712158E-01  0.55457396522E+02  0.55955247418E+02  0.74470750000E+01 0. -1.
        -31    1    1    2    0    0  0.31877795515E-02  0.89153712158E-01  0.62953397799E+02  0.63392406320E+02  0.74470750000E+01 0.  1.
<mgrwt>
<rscale>  0 0.14924686E+02</rscale>
<asrwt>0</asrwt>
<pdfrwt beam="1">  1        2 0.98684990E+00 0.14924686E+02</pdfrwt>
<pdfrwt beam="2">  1       -2 0.99486388E+00 0.14924686E+02</pdfrwt>
<totfact>-0.26160499E-13</totfact>
</mgrwt>
</event>
<event>
 4    1  0.5245809E-019  0.1489904E+02  0.7818608E-02  0.1871165E+00
         -2   -1    0    0    0  501 -0.00000000000E+00  0.00000000000E+00  0.11797597284E+03  0.11797597287E+03  0.25500000000E-02 0.  1.
          2   -1    0    0  501    0  0.00000000000E+00 -0.00000000000E+00 -0.47039215778E+00  0.47039906952E+00  0.25500000000E-02 0. -1.
         31    1    1    2    0    0  0.15090141843E+00 -0.68007518766E-01  0.59509542000E+02  0.59973926930E+02  0.74470750000E+01 0.  1.
        -31    1    1    2    0    0 -0.15090141843E+00  0.68007518766E-01  0.57996038685E+02  0.58472445010E+02  0.74470750000E+01 0.  1.
<mgrwt>
<rscale>  0 0.14899045E+02</rscale>
<asrwt>0</asrwt>
<pdfrwt beam="2">  1        2 0.99899255E+00 0.14899045E+02</pdfrwt>
<pdfrwt beam="1">  1       -2 0.97939748E+00 0.14899045E+02</pdfrwt>
<totfact> 0.48246916E-13</totfact>
</mgrwt>
</event>
<event>
 4    1  0.5245809E-019  0.1490191E+02  0.7818608E-02  0.1871076E+00
         -2   -1    0    0    0  501 -0.00000000000E+00  0.00000000000E+00  0.11855315822E+03  0.11855315825E+03  0.25500000000E-02 0.  1.
          2   -1    0    0  501    0  0.00000000000E+00 -0.00000000000E+00 -0.46828234558E+00  0.46828928846E+00  0.25500000000E-02 0. -1.
         31    1    1    2    0    0 -0.19773903991E+00 -0.13111099864E+00  0.59356778376E+02  0.59822590684E+02  0.74470750000E+01 0.  1.
        -31    1    1    2    0    0  0.19773903991E+00  0.13111099864E+00  0.58728097501E+02  0.59198856855E+02  0.74470750000E+01 0.  1.
<mgrwt>
<rscale>  0 0.14901915E+02</rscale>
<asrwt>0</asrwt>
<pdfrwt beam="2">  1        2 0.99454878E+00 0.14901915E+02</pdfrwt>
<pdfrwt beam="1">  1       -2 0.98415260E+00 0.14901915E+02</pdfrwt>
<totfact> 0.63470734E-13</totfact>
</mgrwt>
</event>
<event>
 4    1 -0.5245809E-019  0.1501236E+02  0.7818608E-02  0.1867692E+00
         -2   -1    0    0    0  501 -0.00000000000E+00  0.00000000000E+00  0.12017515450E+03  0.12017515453E+03  0.25500000000E-02 0.  1.
          2   -1    0    0  501    0  0.00000000000E+00 -0.00000000000E+00 -0.46883500838E+00  0.46884194307E+00  0.25500000000E-02 0. -1.
         31    1    1    2    0    0  0.64623759542E+00 -0.27711395279E+00  0.64867961375E+02  0.65297823503E+02  0.74470750000E+01 0. -1.
        -31    1    1    2    0    0 -0.64623759542E+00  0.27711395279E+00  0.54838358120E+02  0.55346172971E+02  0.74470750000E+01 0. -1.
<mgrwt>
<rscale>  0 0.15012360E+02</rscale>
<asrwt>0</asrwt>
<pdfrwt beam="2">  1        2 0.99577083E+00 0.15012360E+02</pdfrwt>
<pdfrwt beam="1">  1       -2 0.99756897E+00 0.15012360E+02</pdfrwt>
<totfact>-0.75379542E-14</totfact>
</mgrwt>
</event>
<event>
 4    1  0.5245809E-019  0.1490320E+02  0.7818608E-02  0.1871037E+00
         -2   -1    0    0    0  501 -0.00000000000E+00  0.00000000000E+00  0.11822091186E+03  0.11822091189E+03  0.25500000000E-02 0. -1.
          2   -1    0    0  501    0  0.00000000000E+00 -0.00000000000E+00 -0.46967967529E+00  0.46968659751E+00  0.25500000000E-02 0.  1.
         31    1    1    2    0    0  0.64681995765E-01 -0.22942160726E+00  0.59696646361E+02  0.60159831540E+02  0.74470750000E+01 0.  1.
        -31    1    1    2    0    0 -0.64681995765E-01  0.22942160726E+00  0.58054585826E+02  0.58530766948E+02  0.74470750000E+01 0.  1.
<mgrwt>
<rscale>  0 0.14903204E+02</rscale>
<asrwt>0</asrwt>
<pdfrwt beam="2">  1        2 0.99749364E+00 0.14903204E+02</pdfrwt>
<pdfrwt beam="1">  1       -2 0.98141691E+00 0.14903204E+02</pdfrwt>
<totfact> 0.71526499E-13</totfact>
</mgrwt>
</event>
<event>
 4    1 -0.5245809E-019  0.1504558E+02  0.7818608E-02  0.1866681E+00
         -2   -1    0    0    0  501 -0.00000000000E+00  0.00000000000E+00  0.12026108312E+03  0.12026108314E+03  0.25500000000E-02 0. -1.
          2   -1    0    0  501    0  0.00000000000E+00 -0.00000000000E+00 -0.47057590878E+00  0.47058281781E+00  0.25500000000E-02 0.  1.
         31    1    1    2    0    0  0.79672754801E-01 -0.79110460848E+00  0.65576540146E+02  0.66002831286E+02  0.74470750000E+01 0. -1.
        -31    1    1    2    0    0 -0.79672754801E-01  0.79110460848E+00  0.54213967062E+02  0.54728834675E+02  0.74470750000E+01 0.  1.
<mgrwt>
<rscale>  0 0.15045582E+02</rscale>
<asrwt>0</asrwt>
<pdfrwt beam="2">  1        2 0.99945669E+00 0.15045582E+02</pdfrwt>
<pdfrwt beam="1">  1       -2 0.99829389E+00 0.15045582E+02</pdfrwt>
<totfact>-0.10904529E-14</totfact>
</mgrwt>
</event>
<event>
 4    1  0.5245809E-019  0.1492951E+02  0.7818608E-02  0.1870227E+00
         -2   -1    0    0    0  501 -0.00000000000E+00  0.00000000000E+00  0.11892948189E+03  0.11892948192E+03  0.25500000000E-02 0.  1.
          2   -1    0    0  501    0  0.00000000000E+00 -0.00000000000E+00 -0.46853080642E+00  0.46853774561E+00  0.25500000000E-02 0. -1.
         31    1    1    2    0    0  0.96193119929E-01  0.49949331785E+00  0.59788535343E+02  0.60252689826E+02  0.74470750000E+01 0.  1.
        -31    1    1    2    0    0 -0.96193119929E-01 -0.49949331785E+00  0.58672415741E+02  0.59145329838E+02  0.74470750000E+01 0. -1.
<mgrwt>
<rscale>  0 0.14929507E+02</rscale>
<asrwt>0</asrwt>
<pdfrwt beam="2">  1        2 0.99508677E+00 0.14929507E+02</pdfrwt>
<pdfrwt beam="1">  1       -2 0.98726637E+00 0.14929507E+02</pdfrwt>
<totfact> 0.21704538E-13</totfact>
</mgrwt>
</event>
<event>
 4    1  0.5245809E-019  0.1489773E+02  0.7818608E-02  0.1871205E+00
          2   -1    0    0  501    0  0.00000000000E+00  0.00000000000E+00  0.11959168734E+03  0.11959168736E+03  0.25500000000E-02 0. -1.
         -2   -1    0    0    0  501 -0.00000000000E+00 -0.00000000000E+00 -0.46395503703E+00  0.46396204466E+00  0.25500000000E-02 0.  1.
         31    1    1    2    0    0 -0.12727637718E+00 -0.95000461612E-01  0.59258317479E+02  0.59724637636E+02  0.74470750000E+01 0.  1.
        -31    1    1    2    0    0  0.12727637718E+00  0.95000461612E-01  0.59869414821E+02  0.60331011772E+02  0.74470750000E+01 0. -1.
<mgrwt>
<rscale>  0 0.14897730E+02</rscale>
<asrwt>0</asrwt>
<pdfrwt beam="1">  1        2 0.99270411E+00 0.14897730E+02</pdfrwt>
<pdfrwt beam="2">  1       -2 0.98542766E+00 0.14897730E+02</pdfrwt>
<totfact> 0.51605238E-13</totfact>
</mgrwt>
</event>
<event>
 4    1 -0.5245809E-019  0.1495509E+02  0.7818608E-02  0.1869442E+00
          2   -1    0    0  501    0  0.00000000000E+00  0.00000000000E+00  0.11940023122E+03  0.11940023125E+03  0.25500000000E-02 0. -1.
         -2   -1    0    0    0  501 -0.00000000000E+00 -0.00000000000E+00 -0.46828414282E+00  0.46829108567E+00  0.25500000000E-02 0.  1.
         31    1    1    2    0    0 -0.43132710100E+00 -0.39032815710E+00  0.56732232409E+02  0.57221879725E+02  0.74470750000E+01 0.  1.
        -31    1    1    2    0    0  0.43132710100E+00  0.39032815710E+00  0.62199714668E+02  0.62646642607E+02  0.74470750000E+01 0. -1.
<mgrwt>
<rscale>  0 0.14955086E+02</rscale>
<asrwt>0</asrwt>
<pdfrwt beam="1">  1        2 0.99115681E+00 0.14955086E+02</pdfrwt>
<pdfrwt beam="2">  1       -2 0.99458034E+00 0.14955086E+02</pdfrwt>
<totfact>-0.16163720E-13</totfact>
</mgrwt>
</event>
<event>
 4    1 -0.5245809E-019  0.1489939E+02  0.7818608E-02  0.1871154E+00
         -2   -1    0    0    0  501 -0.00000000000E+00  0.00000000000E+00  0.12004557572E+03  0.12004557575E+03  0.25500000000E-02 0. -1.
          2   -1    0    0  501    0  0.00000000000E+00 -0.00000000000E+00 -0.46230383706E+00  0.46231086972E+00  0.25500000000E-02 0.  1.
         31    1    1    2    0    0 -0.16167977895E+00  0.10715907478E+00  0.59488339203E+02  0.59952973659E+02  0.74470750000E+01 0.  1.
        -31    1    1    2    0    0  0.16167977895E+00 -0.10715907478E+00  0.60094932681E+02  0.60554912959E+02  0.74470750000E+01 0. -1.
<mgrwt>
<rscale>  0 0.14899390E+02</rscale>
<asrwt>0</asrwt>
<pdfrwt beam="2">  1        2 0.98194841E+00 0.14899390E+02</pdfrwt>
<pdfrwt beam="1">  1       -2 0.99644352E+00 0.14899390E+02</pdfrwt>
<totfact>-0.51274909E-13</totfact>
</mgrwt>
</event>
<event>
 4    1  0.5245809E-019  0.1492562E+02  0.7818608E-02  0.1870347E+00
         -2   -1    0    0    0  501 -0.00000000000E+00  0.00000000000E+00  0.11890546190E+03  0.11890546193E+03  0.25500000000E-02 0.  1.
          2   -1    0    0  501    0  0.00000000000E+00 -0.00000000000E+00 -0.46838161027E+00  0.46838855167E+00  0.25500000000E-02 0. -1.
         31    1    1    2    0    0  0.17866752507E+00  0.19024082627E+00  0.62482120038E+02  0.62924894629E+02  0.74470750000E+01 0. -1.
        -31    1    1    2    0    0 -0.17866752507E+00 -0.19024082627E+00  0.55954960256E+02  0.56448955853E+02  0.74470750000E+01 0. -1.
<mgrwt>
<rscale>  0 0.14925622E+02</rscale>
<asrwt>0</asrwt>
<pdfrwt beam="2">  1        2 0.99477036E+00 0.14925622E+02</pdfrwt>
<pdfrwt beam="1">  1       -2 0.98706652E+00 0.14925622E+02</pdfrwt>
<totfact> 0.24450892E-13</totfact>
</mgrwt>
</event>
<event>
 4    1 -0.5245809E-019  0.1495459E+02  0.7818608E-02  0.1869457E+00
         -2   -1    0    0    0  501 -0.00000000000E+00  0.00000000000E+00  0.11941200758E+03  0.11941200761E+03  0.25500000000E-02 0.  1.
          2   -1    0    0  501    0  0.00000000000E+00 -0.00000000000E+00 -0.46820686475E+00  0.46821380874E+00  0.25500000000E-02 0. -1.
         31    1    1    2    0    0 -0.35371740346E+00 -0.45233147623E+00  0.62263751000E+02  0.62710153360E+02  0.74470750000E+01 0. -1.
        -31    1    1    2    0    0  0.35371740346E+00  0.45233147623E+00  0.56680049715E+02  0.57170068056E+02  0.74470750000E+01 0.  1.
<mgrwt>
<rscale>  0 0.14954590E+02</rscale>
<asrwt>0</asrwt>
<pdfrwt beam="2">  1        2 0.99441724E+00 0.14954590E+02</pdfrwt>
<pdfrwt beam="1">  1       -2 0.99125355E+00 0.14954590E+02</pdfrwt>
<totfact>-0.55344443E-14</totfact>
</mgrwt>
</event>
<event>
 4    1  0.5245809E-019  0.1489681E+02  0.7818608E-02  0.1871234E+00
         -2   -1    0    0    0  501 -0.00000000000E+00  0.00000000000E+00  0.11872090588E+03  0.11872090591E+03  0.25500000000E-02 0.  1.
          2   -1    0    0  501    0  0.00000000000E+00 -0.00000000000E+00 -0.46730048564E+00  0.46730744310E+00  0.25500000000E-02 0. -1.
         31    1    1    2    0    0  0.92335984850E-01 -0.79380917478E-01  0.59692548140E+02  0.60155415856E+02  0.74470750000E+01 0.  1.
        -31    1    1    2    0    0 -0.92335984850E-01  0.79380917478E-01  0.58561057256E+02  0.59032797496E+02  0.74470750000E+01 0. -1.
<mgrwt>
<rscale>  0 0.14896812E+02</rscale>
<asrwt>0</asrwt>
<pdfrwt beam="2">  1        2 0.99247720E+00 0.14896812E+02</pdfrwt>
<pdfrwt beam="1">  1       -2 0.98553154E+00 0.14896812E+02</pdfrwt>
<totfact> 0.50813952E-13</totfact>
</mgrwt>
</event>
<event>
 4    1 -0.5245809E-019  0.1498714E+02  0.7818608E-02  0.1868461E+00
         -2   -1    0    0    0  501 -0.00000000000E+00  0.00000000000E+00  0.11960153408E+03  0.11960153410E+03  0.25500000000E-02 0.  1.
          2   -1    0    0  501    0  0.00000000000E+00 -0.00000000000E+00 -0.46950208631E+00  0.46950901115E+00  0.25500000000E-02 0. -1.
         31    1    1    2    0    0  0.60084572390E+00 -0.40150511734E+00  0.56239133470E+02  0.56734656793E+02  0.74470750000E+01 0. -1.
        -31    1    1    2    0    0 -0.60084572390E+00  0.40150511734E+00  0.62892898522E+02  0.63336386323E+02  0.74470750000E+01 0.  1.
<mgrwt>
<rscale>  0 0.14987139E+02</rscale>
<asrwt>0</asrwt>
<pdfrwt beam="2">  1        2 0.99716351E+00 0.14987139E+02</pdfrwt>
<pdfrwt beam="1">  1       -2 0.99283139E+00 0.14987139E+02</pdfrwt>
<totfact>-0.71147088E-14</totfact>
</mgrwt>
</event>
<event>
 4    1 -0.5245809E-019  0.1493547E+02  0.7818608E-02  0.1870044E+00
          2   -1    0    0  501    0  0.00000000000E+00  0.00000000000E+00  0.11917946582E+03  0.11917946584E+03  0.25500000000E-02 0. -1.
         -2   -1    0    0    0  501 -0.00000000000E+00 -0.00000000000E+00 -0.46792174201E+00  0.46792869024E+00  0.25500000000E-02 0.  1.
         31    1    1    2    0    0 -0.20963889037E+00 -0.14260475955E-01  0.55239647940E+02  0.55739768410E+02  0.74470750000E+01 0.  1.
        -31    1    1    2    0    0  0.20963889037E+00  0.14260475955E-01  0.63471896134E+02  0.63907626123E+02  0.74470750000E+01 0. -1.
<mgrwt>
<rscale>  0 0.14935472E+02</rscale>
<asrwt>0</asrwt>
<pdfrwt beam="1">  1        2 0.98932837E+00 0.14935472E+02</pdfrwt>
<pdfrwt beam="2">  1       -2 0.99380647E+00 0.14935472E+02</pdfrwt>
<totfact>-0.18426420E-13</totfact>
</mgrwt>
</event>
<event>
 4    1 -0.5245809E-019  0.1500874E+02  0.7818608E-02  0.1867802E+00
         -2   -1    0    0    0  501 -0.00000000000E+00  0.00000000000E+00  0.11995680450E+03  0.11995680453E+03  0.25500000000E-02 0.  1.
          2   -1    0    0  501    0  0.00000000000E+00 -0.00000000000E+00 -0.46946198351E+00  0.46946890894E+00  0.25500000000E-02 0. -1.
         31    1    1    2    0    0  0.85435731360E+00  0.28308139302E+00  0.58011760624E+02  0.58494729320E+02  0.74470750000E+01 0. -1.
        -31    1    1    2    0    0 -0.85435731360E+00 -0.28308139302E+00  0.61475581892E+02  0.61931544116E+02  0.74470750000E+01 0.  1.
<mgrwt>
<rscale>  0 0.15008741E+02</rscale>
<asrwt>0</asrwt>
<pdfrwt beam="2">  1        2 0.99709022E+00 0.15008741E+02</pdfrwt>
<pdfrwt beam="1">  1       -2 0.99576869E+00 0.15008741E+02</pdfrwt>
<totfact>-0.82771972E-14</totfact>
</mgrwt>
</event>
<event>
 4    1  0.5245809E-019  0.1492467E+02  0.7818608E-02  0.1870376E+00
          2   -1    0    0  501    0  0.00000000000E+00  0.00000000000E+00  0.11994642552E+03  0.11994642555E+03  0.25500000000E-02 0.  1.
         -2   -1    0    0    0  501 -0.00000000000E+00 -0.00000000000E+00 -0.46425714938E+00  0.46426415245E+00  0.25500000000E-02 0. -1.
         31    1    1    2    0    0 -0.16221674083E+00  0.32465134404E+00  0.57244333149E+02  0.57727846976E+02  0.74470750000E+01 0. -1.
        -31    1    1    2    0    0  0.16221674083E+00 -0.32465134404E+00  0.62237835225E+02  0.62682842726E+02  0.74470750000E+01 0.  1.
<mgrwt>
<rscale>  0 0.14924665E+02</rscale>
<asrwt>0</asrwt>
<pdfrwt beam="1">  1        2 0.99563983E+00 0.14924665E+02</pdfrwt>
<pdfrwt beam="2">  1       -2 0.98607813E+00 0.14924665E+02</pdfrwt>
<totfact> 0.32282148E-13</totfact>
</mgrwt>
</event>
<event>
 4    1 -0.5245809E-019  0.1496136E+02  0.7818608E-02  0.1869250E+00
         -2   -1    0    0    0  501 -0.00000000000E+00  0.00000000000E+00  0.11972003975E+03  0.11972003978E+03  0.25500000000E-02 0.  1.
          2   -1    0    0  501    0  0.00000000000E+00 -0.00000000000E+00 -0.46742505308E+00  0.46743200868E+00  0.25500000000E-02 0. -1.
         31    1    1    2    0    0 -0.42627314488E+00 -0.44635794431E+00  0.62417136936E+02  0.62862857503E+02  0.74470750000E+01 0.  1.
        -31    1    1    2    0    0  0.42627314488E+00  0.44635794431E+00  0.56835477761E+02  0.57324614282E+02  0.74470750000E+01 0. -1.
<mgrwt>
<rscale>  0 0.14961359E+02</rscale>
<asrwt>0</asrwt>
<pdfrwt beam="2">  1        2 0.99277322E+00 0.14961359E+02</pdfrwt>
<pdfrwt beam="1">  1       -2 0.99379411E+00 0.14961359E+02</pdfrwt>
<totfact>-0.13789811E-13</totfact>
</mgrwt>
</event>
<event>
 4    1  0.5245809E-019  0.1491535E+02  0.7818608E-02  0.1870663E+00
          2   -1    0    0  501    0  0.00000000000E+00  0.00000000000E+00  0.11963045709E+03  0.11963045712E+03  0.25500000000E-02 0.  1.
         -2   -1    0    0    0  501 -0.00000000000E+00 -0.00000000000E+00 -0.46490250665E+00  0.46490949999E+00  0.25500000000E-02 0. -1.
         31    1    1    2    0    0  0.33693242175E+00 -0.52245759657E-01  0.57937729925E+02  0.58415372360E+02  0.74470750000E+01 0. -1.
        -31    1    1    2    0    0 -0.33693242175E+00  0.52245759657E-01  0.61227824659E+02  0.61679994257E+02  0.74470750000E+01 0. -1.
<mgrwt>
<rscale>  0 0.14915351E+02</rscale>
<asrwt>0</asrwt>
<pdfrwt beam="1">  1        2 0.99303252E+00 0.14915351E+02</pdfrwt>
<pdfrwt beam="2">  1       -2 0.98743348E+00 0.14915351E+02</pdfrwt>
<totfact> 0.23894985E-13</totfact>
</mgrwt>
</event>
<event>
 4    1 -0.5245809E-019  0.1491163E+02  0.7818608E-02  0.1870777E+00
          2   -1    0    0  501    0  0.00000000000E+00  0.00000000000E+00  0.11867819894E+03  0.11867819897E+03  0.25500000000E-02 0. -1.
         -2   -1    0    0    0  501 -0.00000000000E+00 -0.00000000000E+00 -0.46839897604E+00  0.46840591719E+00  0.25500000000E-02 0.  1.
         31    1    1    2    0    0 -0.28131432681E-01 -0.15108080967E+00  0.56495899034E+02  0.56984815087E+02  0.74470750000E+01 0.  1.
        -31    1    1    2    0    0  0.28131432681E-01  0.15108080967E+00  0.61713900933E+02  0.62161789800E+02  0.74470750000E+01 0. -1.
<mgrwt>
<rscale>  0 0.14911628E+02</rscale>
<asrwt>0</asrwt>
<pdfrwt beam="1">  1        2 0.98518749E+00 0.14911628E+02</pdfrwt>
<pdfrwt beam="2">  1       -2 0.99479963E+00 0.14911628E+02</pdfrwt>
<totfact>-0.33766160E-13</totfact>
</mgrwt>
</event>
<event>
 4    1  0.5245809E-019  0.1490557E+02  0.7818608E-02  0.1870964E+00
         -2   -1    0    0    0  501 -0.00000000000E+00  0.00000000000E+00  0.11816528631E+03  0.11816528634E+03  0.25500000000E-02 0.  1.
          2   -1    0    0  501    0  0.00000000000E+00 -0.00000000000E+00 -0.47005015813E+00  0.47005707489E+00  0.25500000000E-02 0. -1.
         31    1    1    2    0    0 -0.67700332403E-01  0.19425340855E+00  0.57201412463E+02  0.57684511193E+02  0.74470750000E+01 0. -1.
        -31    1    1    2    0    0  0.67700332403E-01 -0.19425340855E+00  0.60493823690E+02  0.60950832221E+02  0.74470750000E+01 0.  1.
<mgrwt>
<rscale>  0 0.14905573E+02</rscale>
<asrwt>0</asrwt>
<pdfrwt beam="2">  1        2 0.99827547E+00 0.14905573E+02</pdfrwt>
<pdfrwt beam="1">  1       -2 0.98096002E+00 0.14905573E+02</pdfrwt>
<totfact> 0.58388237E-13</totfact>
</mgrwt>
</event>
<event>
 4    1 -0.5245809E-019  0.1493537E+02  0.7818608E-02  0.1870047E+00
          2   -1    0    0  501    0  0.00000000000E+00  0.00000000000E+00  0.11870009865E+03  0.11870009867E+03  0.25500000000E-02 0. -1.
         -2   -1    0    0    0  501 -0.00000000000E+00 -0.00000000000E+00 -0.46980503089E+00  0.46981195127E+00  0.25500000000E-02 0.  1.
         31    1    1    2    0    0  0.48960300079E+00  0.25839948820E+00  0.59355850041E+02  0.59823760677E+02  0.74470750000E+01 0.  1.
        -31    1    1    2    0    0 -0.48960300079E+00 -0.25839948820E+00  0.58874443575E+02  0.59346149948E+02  0.74470750000E+01 0. -1.
<mgrwt>
<rscale>  0 0.14935370E+02</rscale>
<asrwt>0</asrwt>
<pdfrwt beam="1">  1        2 0.98538020E+00 0.14935370E+02</pdfrwt>
<pdfrwt beam="2">  1       -2 0.99777475E+00 0.14935370E+02</pdfrwt>
<totfact>-0.21113070E-13</totfact>
</mgrwt>
</event>
<event>
 4    1 -0.5245809E-019  0.1492713E+02  0.7818608E-02  0.1870300E+00
          2   -1    0    0  501    0  0.00000000000E+00  0.00000000000E+00  0.11928544190E+03  0.11928544193E+03  0.25500000000E-02 0.  1.
         -2   -1    0    0    0  501 -0.00000000000E+00 -0.00000000000E+00 -0.46698423074E+00  0.46699119291E+00  0.25500000000E-02 0. -1.
         31    1    1    2    0    0 -0.19698685325E+00  0.80995871537E-01  0.63001902150E+02  0.63440869830E+02  0.74470750000E+01 0.  1.
        -31    1    1    2    0    0  0.19698685325E+00 -0.80995871537E-01  0.55816555524E+02  0.56311563295E+02  0.74470750000E+01 0. -1.
<mgrwt>
<rscale>  0 0.14927135E+02</rscale>
<asrwt>0</asrwt>
<pdfrwt beam="1">  1        2 0.99019690E+00 0.14927135E+02</pdfrwt>
<pdfrwt beam="2">  1       -2 0.99182656E+00 0.14927135E+02</pdfrwt>
<totfact>-0.10771322E-13</totfact>
</mgrwt>
</event>
<event>
 4    1 -0.5245809E-019  0.1493064E+02  0.7818608E-02  0.1870193E+00
         -2   -1    0    0    0  501 -0.00000000000E+00  0.00000000000E+00  0.12005322570E+03  0.12005322573E+03  0.25500000000E-02 0.  1.
          2   -1    0    0  501    0  0.00000000000E+00 -0.00000000000E+00 -0.46421545126E+00  0.46422245495E+00  0.25500000000E-02 0. -1.
         31    1    1    2    0    0 -0.29086226772E+00 -0.31774056326E+00  0.62168499543E+02  0.62614429818E+02  0.74470750000E+01 0.  1.
        -31    1    1    2    0    0  0.29086226772E+00  0.31774056326E+00  0.57420510705E+02  0.57903018363E+02  0.74470750000E+01 0. -1.
<mgrwt>
<rscale>  0 0.14930638E+02</rscale>
<asrwt>0</asrwt>
<pdfrwt beam="2">  1        2 0.98599328E+00 0.14930638E+02</pdfrwt>
<pdfrwt beam="1">  1       -2 0.99652258E+00 0.14930638E+02</pdfrwt>
<totfact>-0.25976527E-13</totfact>
</mgrwt>
</event>
<event>
 4    1  0.5245809E-019  0.1492328E+02  0.7818608E-02  0.1870419E+00
         -2   -1    0    0    0  501 -0.00000000000E+00  0.00000000000E+00  0.11898814937E+03  0.11898814940E+03  0.25500000000E-02 0.  1.
          2   -1    0    0  501    0  0.00000000000E+00 -0.00000000000E+00 -0.46790905747E+00  0.46791600589E+00  0.25500000000E-02 0. -1.
         31    1    1    2    0    0  0.10191898295E+00 -0.20493859721E+00  0.62509035540E+02  0.62951495912E+02  0.74470750000E+01 0.  1.
        -31    1    1    2    0    0 -0.10191898295E+00  0.20493859721E+00  0.56011204770E+02  0.56504569489E+02  0.74470750000E+01 0. -1.
<mgrwt>
<rscale>  0 0.14923277E+02</rscale>
<asrwt>0</asrwt>
<pdfrwt beam="2">  1        2 0.99377339E+00 0.14923277E+02</pdfrwt>
<pdfrwt beam="1">  1       -2 0.98774633E+00 0.14923277E+02</pdfrwt>
<totfact> 0.19368935E-13</totfact>
</mgrwt>
</event>
<event>
 4    1  0.5245809E-019  0.1494131E+02  0.7818608E-02  0.1869865E+00
         -2   -1    0    0    0  501 -0.00000000000E+00  0.00000000000E+00  0.11862466184E+03  0.11862466187E+03  0.25500000000E-02 0. -1.
          2   -1    0    0  501    0  0.00000000000E+00 -0.00000000000E+00 -0.47047790671E+00  0.47048481718E+00  0.25500000000E-02 0.  1.
         31    1    1    2    0    0 -0.26857970495E+00  0.20653842621E+00  0.55196857417E+02  0.55697996265E+02  0.74470750000E+01 0.  1.
        -31    1    1    2    0    0  0.26857970495E+00 -0.20653842621E+00  0.62957326520E+02  0.63397150424E+02  0.74470750000E+01 0. -1.
<mgrwt>
<rscale>  0 0.14941311E+02</rscale>
<asrwt>0</asrwt>
<pdfrwt beam="2">  1        2 0.99919564E+00 0.14941311E+02</pdfrwt>
<pdfrwt beam="1">  1       -2 0.98476200E+00 0.14941311E+02</pdfrwt>
<totfact> 0.13062175E-13</totfact>
</mgrwt>
</event>
<event>
 4    1  0.5245809E-019  0.1491001E+02  0.7818608E-02  0.1870827E+00
          2   -1    0    0  501    0  0.00000000000E+00  0.00000000000E+00  0.12012009732E+03  0.12012009735E+03  0.25500000000E-02 0. -1.
         -2   -1    0    0    0  501 -0.00000000000E+00 -0.00000000000E+00 -0.46267590753E+00  0.46268293453E+00  0.25500000000E-02 0.  1.
         31    1    1    2    0    0  0.27095187434E+00 -0.17782274524E+00  0.58901711773E+02  0.59371505048E+02  0.74470750000E+01 0. -1.
        -31    1    1    2    0    0 -0.27095187434E+00  0.17782274524E+00  0.60755709644E+02  0.61211275238E+02  0.74470750000E+01 0.  1.
<mgrwt>
<rscale>  0 0.14910010E+02</rscale>
<asrwt>0</asrwt>
<pdfrwt beam="1">  1        2 0.99706279E+00 0.14910010E+02</pdfrwt>
<pdfrwt beam="2">  1       -2 0.98273800E+00 0.14910010E+02</pdfrwt>
<totfact> 0.61340123E-13</totfact>
</mgrwt>
</event>
<event>
 4    1 -0.5245809E-019  0.1499216E+02  0.7818608E-02  0.1868308E+00
          2   -1    0    0  501    0  0.00000000000E+00  0.00000000000E+00  0.11976795376E+03  0.11976795379E+03  0.25500000000E-02 0. -1.
         -2   -1    0    0    0  501 -0.00000000000E+00 -0.00000000000E+00 -0.46916370989E+00  0.46917063973E+00  0.25500000000E-02 0.  1.
         31    1    1    2    0    0  0.29735161079E+00  0.61141052457E-01  0.53232824982E+02  0.53752067289E+02  0.74470750000E+01 0.  1.
        -31    1    1    2    0    0 -0.29735161079E+00 -0.61141052457E-01  0.66065965072E+02  0.66485057142E+02  0.74470750000E+01 0. -1.
<mgrwt>
<rscale>  0 0.14992157E+02</rscale>
<asrwt>0</asrwt>
<pdfrwt beam="1">  1        2 0.99420467E+00 0.14992157E+02</pdfrwt>
<pdfrwt beam="2">  1       -2 0.99645307E+00 0.14992157E+02</pdfrwt>
<totfact>-0.11369935E-13</totfact>
</mgrwt>
</event>
<event>
 4    1 -0.5245809E-019  0.1496441E+02  0.7818608E-02  0.1869156E+00
         -2   -1    0    0    0  501 -0.00000000000E+00  0.00000000000E+00  0.11999434711E+03  0.11999434713E+03  0.25500000000E-02 0. -1.
          2   -1    0    0  501    0  0.00000000000E+00 -0.00000000000E+00 -0.46654703144E+00  0.46655400014E+00  0.25500000000E-02 0.  1.
         31    1    1    2    0    0 -0.47844998146E+00 -0.53469061620E+00  0.58971358330E+02  0.59444047960E+02  0.74470750000E+01 0. -1.
        -31    1    1    2    0    0  0.47844998146E+00  0.53469061620E+00  0.60556441746E+02  0.61016853175E+02  0.74470750000E+01 0.  1.
<mgrwt>
<rscale>  0 0.14964415E+02</rscale>
<asrwt>0</asrwt>
<pdfrwt beam="2">  1        2 0.99092443E+00 0.14964415E+02</pdfrwt>
<pdfrwt beam="1">  1       -2 0.99605501E+00 0.14964415E+02</pdfrwt>
<totfact>-0.15344778E-13</totfact>
</mgrwt>
</event>
<event>
 4    1 -0.5245809E-019  0.1493391E+02  0.7818608E-02  0.1870092E+00
         -2   -1    0    0    0  501 -0.00000000000E+00  0.00000000000E+00  0.11979042114E+03  0.11979042117E+03  0.25500000000E-02 0. -1.
          2   -1    0    0  501    0  0.00000000000E+00 -0.00000000000E+00 -0.46543803393E+00  0.46544501923E+00  0.25500000000E-02 0.  1.
         31    1    1    2    0    0 -0.48608920441E+00  0.21127846376E+00  0.60668007408E+02  0.61125665397E+02  0.74470750000E+01 0. -1.
        -31    1    1    2    0    0  0.48608920441E+00 -0.21127846376E+00  0.58656975702E+02  0.59130200793E+02  0.74470750000E+01 0. -1.
<mgrwt>
<rscale>  0 0.14933913E+02</rscale>
<asrwt>0</asrwt>
<pdfrwt beam="2">  1        2 0.98857160E+00 0.14933913E+02</pdfrwt>
<pdfrwt beam="1">  1       -2 0.99435964E+00 0.14933913E+02</pdfrwt>
<totfact>-0.20724598E-13</totfact>
</mgrwt>
</event>
<event>
 4    1  0.5245809E-019  0.1491760E+02  0.7818608E-02  0.1870594E+00
         -2   -1    0    0    0  501 -0.00000000000E+00  0.00000000000E+00  0.11860213408E+03  0.11860213411E+03  0.25500000000E-02 0.  1.
          2   -1    0    0  501    0  0.00000000000E+00 -0.00000000000E+00 -0.46907470069E+00  0.46908163184E+00  0.25500000000E-02 0. -1.
         31    1    1    2    0    0 -0.41335496084E+00 -0.52801891608E-01  0.58801990749E+02  0.59273153219E+02  0.74470750000E+01 0.  1.
        -31    1    1    2    0    0  0.41335496084E+00  0.52801891608E-01  0.59331068629E+02  0.59798062519E+02  0.74470750000E+01 0.  1.
<mgrwt>
<rscale>  0 0.14917597E+02</rscale>
<asrwt>0</asrwt>
<pdfrwt beam="2">  1        2 0.99622656E+00 0.14917597E+02</pdfrwt>
<pdfrwt beam="1">  1       -2 0.98456412E+00 0.14917597E+02</pdfrwt>
<totfact> 0.46694335E-13</totfact>
</mgrwt>
</event>
<event>
 4    1  0.5245809E-019  0.1491713E+02  0.7818608E-02  0.1870608E+00
         -2   -1    0    0    0  501 -0.00000000000E+00  0.00000000000E+00  0.11857676962E+03  0.11857676965E+03  0.25500000000E-02 0.  1.
          2   -1    0    0  501    0  0.00000000000E+00 -0.00000000000E+00 -0.46914592045E+00  0.46915285054E+00  0.25500000000E-02 0. -1.
         31    1    1    2    0    0  0.15865309410E+00  0.72514213384E-01  0.62049063311E+02  0.62494604671E+02  0.74470750000E+01 0.  1.
        -31    1    1    2    0    0 -0.15865309410E+00 -0.72514213384E-01  0.56058560393E+02  0.56551317832E+02  0.74470750000E+01 0. -1.
<mgrwt>
<rscale>  0 0.14917134E+02</rscale>
<asrwt>0</asrwt>
<pdfrwt beam="2">  1        2 0.99637638E+00 0.14917134E+02</pdfrwt>
<pdfrwt beam="1">  1       -2 0.98435498E+00 0.14917134E+02</pdfrwt>
<totfact> 0.48120524E-13</totfact>
</mgrwt>
</event>
<event>
 4    1 -0.5245809E-019  0.1496756E+02  0.7818608E-02  0.1869060E+00
          2   -1    0    0  501    0  0.00000000000E+00  0.00000000000E+00  0.11963560901E+03  0.11963560903E+03  0.25500000000E-02 0.  1.
         -2   -1    0    0    0  501 -0.00000000000E+00 -0.00000000000E+00 -0.46814266704E+00  0.46814961199E+00  0.25500000000E-02 0. -1.
         31    1    1    2    0    0 -0.50330316551E+00  0.36443936246E+00  0.56355067076E+02  0.56848382926E+02  0.74470750000E+01 0. -1.
        -31    1    1    2    0    0  0.50330316551E+00 -0.36443936246E+00  0.62812399264E+02  0.63255375720E+02  0.74470750000E+01 0.  1.
<mgrwt>
<rscale>  0 0.14967558E+02</rscale>
<asrwt>0</asrwt>
<pdfrwt beam="1">  1        2 0.99310191E+00 0.14967558E+02</pdfrwt>
<pdfrwt beam="2">  1       -2 0.99428868E+00 0.14967558E+02</pdfrwt>
<totfact>-0.13891962E-13</totfact>
</mgrwt>
</event>
<event>
 4    1 -0.5245809E-019  0.1491138E+02  0.7818608E-02  0.1870785E+00
          2   -1    0    0  501    0  0.00000000000E+00  0.00000000000E+00  0.11855340554E+03  0.11855340557E+03  0.25500000000E-02 0.  1.
         -2   -1    0    0    0  501 -0.00000000000E+00 -0.00000000000E+00 -0.46887654589E+00  0.46888347997E+00  0.25500000000E-02 0. -1.
         31    1    1    2    0    0  0.36949460670E-01  0.22108700990E+00  0.61273720023E+02  0.61725018723E+02  0.74470750000E+01 0.  1.
        -31    1    1    2    0    0 -0.36949460670E-01 -0.22108700990E+00  0.56810808975E+02  0.57297270329E+02  0.74470750000E+01 0. -1.
<mgrwt>
<rscale>  0 0.14911382E+02</rscale>
<asrwt>0</asrwt>
<pdfrwt beam="1">  1        2 0.98415956E+00 0.14911382E+02</pdfrwt>
<pdfrwt beam="2">  1       -2 0.99580577E+00 0.14911382E+02</pdfrwt>
<totfact>-0.38122870E-13</totfact>
</mgrwt>
</event>
<event>
 4    1 -0.5245809E-019  0.1494578E+02  0.7818608E-02  0.1869727E+00
         -2   -1    0    0    0  501 -0.00000000000E+00  0.00000000000E+00  0.12003879561E+03  0.12003879564E+03  0.25500000000E-02 0.  1.
          2   -1    0    0  501    0  0.00000000000E+00 -0.00000000000E+00 -0.46521358458E+00  0.46522057325E+00  0.25500000000E-02 0. -1.
         31    1    1    2    0    0  0.24316953208E+00  0.18729097491E+00  0.55437646997E+02  0.55936444649E+02  0.74470750000E+01 0. -1.
        -31    1    1    2    0    0 -0.24316953208E+00 -0.18729097491E+00  0.64135935033E+02  0.64567571566E+02  0.74470750000E+01 0.  1.
<mgrwt>
<rscale>  0 0.14945782E+02</rscale>
<asrwt>0</asrwt>
<pdfrwt beam="2">  1        2 0.98810464E+00 0.14945782E+02</pdfrwt>
<pdfrwt beam="1">  1       -2 0.99641152E+00 0.14945782E+02</pdfrwt>
<totfact>-0.19618256E-13</totfact>
</mgrwt>
</event>
<event>
 4    1 -0.5245809E-019  0.1495388E+02  0.7818608E-02  0.1869479E+00
          2   -1    0    0  501    0  0.00000000000E+00  0.00000000000E+00  0.11979152889E+03  0.11979152891E+03  0.25500000000E-02 0.  1.
         -2   -1    0    0    0  501 -0.00000000000E+00 -0.00000000000E+00 -0.46667919188E+00  0.46668615860E+00  0.25500000000E-02 0. -1.
         31    1    1    2    0    0 -0.58943326937E+00 -0.21920720879E+00  0.61464698778E+02  0.61917393399E+02  0.74470750000E+01 0.  1.
        -31    1    1    2    0    0  0.58943326937E+00  0.21920720879E+00  0.57860150917E+02  0.58340821674E+02  0.74470750000E+01 0. -1.
<mgrwt>
<rscale>  0 0.14953880E+02</rscale>
<asrwt>0</asrwt>
<pdfrwt beam="1">  1        2 0.99437906E+00 0.14953880E+02</pdfrwt>
<pdfrwt beam="2">  1       -2 0.99119754E+00 0.14953880E+02</pdfrwt>
<totfact>-0.53124895E-14</totfact>
</mgrwt>
</event>
<event>
 4    1 -0.5245809E-019  0.1498187E+02  0.7818608E-02  0.1868622E+00
          2   -1    0    0  501    0  0.00000000000E+00  0.00000000000E+00  0.11986836733E+03  0.11986836735E+03  0.25500000000E-02 0. -1.
         -2   -1    0    0    0  501 -0.00000000000E+00 -0.00000000000E+00 -0.46812735036E+00  0.46813429554E+00  0.25500000000E-02 0.  1.
         31    1    1    2    0    0  0.82354863881E-01 -0.17210593044E+00  0.66018266927E+02  0.66437240286E+02  0.74470750000E+01 0. -1.
        -31    1    1    2    0    0 -0.82354863881E-01  0.17210593044E+00  0.53381973049E+02  0.53899261363E+02  0.74470750000E+01 0.  1.
<mgrwt>
<rscale>  0 0.14981866E+02</rscale>
<asrwt>0</asrwt>
<pdfrwt beam="1">  1        2 0.99502639E+00 0.14981866E+02</pdfrwt>
<pdfrwt beam="2">  1       -2 0.99426380E+00 0.14981866E+02</pdfrwt>
<totfact>-0.11807075E-13</totfact>
</mgrwt>
</event>
<event>
 4    1 -0.5245809E-019  0.1494409E+02  0.7818608E-02  0.1869779E+00
         -2   -1    0    0    0  501 -0.00000000000E+00  0.00000000000E+00  0.11973596024E+03  0.11973596027E+03  0.25500000000E-02 0. -1.
          2   -1    0    0  501    0  0.00000000000E+00 -0.00000000000E+00 -0.46628478090E+00  0.46629175352E+00  0.25500000000E-02 0.  1.
         31    1    1    2    0    0  0.50687509473E+00  0.25002073858E+00  0.57781035158E+02  0.58261705972E+02  0.74470750000E+01 0.  1.
        -31    1    1    2    0    0 -0.50687509473E+00 -0.25002073858E+00  0.61488640304E+02  0.61940546052E+02  0.74470750000E+01 0. -1.
<mgrwt>
<rscale>  0 0.14944093E+02</rscale>
<asrwt>0</asrwt>
<pdfrwt beam="2">  1        2 0.99036131E+00 0.14944093E+02</pdfrwt>
<pdfrwt beam="1">  1       -2 0.99391632E+00 0.14944093E+02</pdfrwt>
<totfact>-0.16799580E-13</totfact>
</mgrwt>
</event>
<event>
 4    1  0.5245809E-019  0.1491579E+02  0.7818608E-02  0.1870649E+00
         -2   -1    0    0    0  501 -0.00000000000E+00  0.00000000000E+00  0.11852332696E+03  0.11852332698E+03  0.25500000000E-02 0. -1.
          2   -1    0    0  501    0  0.00000000000E+00 -0.00000000000E+00 -0.46927301289E+00  0.46927994111E+00  0.25500000000E-02 0.  1.
         31    1    1    2    0    0  0.30851612426E+00 -0.15121445014E+00  0.60685884242E+02  0.61142076513E+02  0.74470750000E+01 0. -1.
        -31    1    1    2    0    0 -0.30851612426E+00  0.15121445014E+00  0.57368169703E+02  0.57850530413E+02  0.74470750000E+01 0.  1.
<mgrwt>
<rscale>  0 0.14915792E+02</rscale>
<asrwt>0</asrwt>
<pdfrwt beam="2">  1        2 0.99664346E+00 0.14915792E+02</pdfrwt>
<pdfrwt beam="1">  1       -2 0.98391413E+00 0.14915792E+02</pdfrwt>
<totfact> 0.51226752E-13</totfact>
</mgrwt>
</event>
<event>
 4    1 -0.5245809E-019  0.1491255E+02  0.7818608E-02  0.1870749E+00
         -2   -1    0    0    0  501 -0.00000000000E+00  0.00000000000E+00  0.11995956774E+03  0.11995956777E+03  0.25500000000E-02 0. -1.
          2   -1    0    0  501    0  0.00000000000E+00 -0.00000000000E+00 -0.46345318734E+00  0.46346020256E+00  0.25500000000E-02 0.  1.
         31    1    1    2    0    0  0.29706057453E+00  0.12074405770E+00  0.58252104945E+02  0.58727076215E+02  0.74470750000E+01 0. -1.
        -31    1    1    2    0    0 -0.29706057453E+00 -0.12074405770E+00  0.61244009610E+02  0.61695951757E+02  0.74470750000E+01 0. -1.
<mgrwt>
<rscale>  0 0.14912554E+02</rscale>
<asrwt>0</asrwt>
<pdfrwt beam="2">  1        2 0.98437753E+00 0.14912554E+02</pdfrwt>
<pdfrwt beam="1">  1       -2 0.99574185E+00 0.14912554E+02</pdfrwt>
<totfact>-0.36973771E-13</totfact>
</mgrwt>
</event>
<event>
 4    1 -0.5245809E-019  0.1493976E+02  0.7818608E-02  0.1869912E+00
          2   -1    0    0  501    0  0.00000000000E+00  0.00000000000E+00  0.11890345930E+03  0.11890345933E+03  0.25500000000E-02 0. -1.
         -2   -1    0    0    0  501 -0.00000000000E+00 -0.00000000000E+00 -0.46927708510E+00  0.46928401326E+00  0.25500000000E-02 0.  1.
         31    1    1    2    0    0  0.46211232101E+00  0.42323079049E-01  0.62040031579E+02  0.62487116939E+02  0.74470750000E+01 0. -1.
        -31    1    1    2    0    0 -0.46211232101E+00 -0.42323079049E-01  0.56394150639E+02  0.56885626404E+02  0.74470750000E+01 0.  1.
<mgrwt>
<rscale>  0 0.14939757E+02</rscale>
<asrwt>0</asrwt>
<pdfrwt beam="1">  1        2 0.98705736E+00 0.14939757E+02</pdfrwt>
<pdfrwt beam="2">  1       -2 0.99666464E+00 0.14939757E+02</pdfrwt>
<totfact>-0.21672372E-13</totfact>
</mgrwt>
</event>
<event>
 4    1  0.5245809E-019  0.1494446E+02  0.7818608E-02  0.1869768E+00
          2   -1    0    0  501    0  0.00000000000E+00  0.00000000000E+00  0.12008470136E+03  0.12008470139E+03  0.25500000000E-02 0.  1.
         -2   -1    0    0    0  501 -0.00000000000E+00 -0.00000000000E+00 -0.46495328824E+00  0.46496028083E+00  0.25500000000E-02 0. -1.
         31    1    1    2    0    0 -0.46462853158E-01 -0.60051983543E+00  0.58908337035E+02  0.59380248241E+02  0.74470750000E+01 0. -1.
        -31    1    1    2    0    0  0.46462853158E-01  0.60051983543E+00  0.60711411036E+02  0.61169413426E+02  0.74470750000E+01 0.  1.
<mgrwt>
<rscale>  0 0.14944457E+02</rscale>
<asrwt>0</asrwt>
<pdfrwt beam="1">  1        2 0.99678895E+00 0.14944457E+02</pdfrwt>
<pdfrwt beam="2">  1       -2 0.98755538E+00 0.14944457E+02</pdfrwt>
<totfact> 0.14777495E-13</totfact>
</mgrwt>
</event>
<event>
 4    1  0.5245809E-019  0.1491992E+02  0.7818608E-02  0.1870522E+00
          2   -1    0    0  501    0  0.00000000000E+00  0.00000000000E+00  0.11957394174E+03  0.11957394176E+03  0.25500000000E-02 0.  1.
         -2   -1    0    0    0  501 -0.00000000000E+00 -0.00000000000E+00 -0.46540699903E+00  0.46541398480E+00  0.25500000000E-02 0. -1.
         31    1    1    2    0    0 -0.95793858532E-01  0.21356447844E-01  0.56118026359E+02  0.56610082503E+02  0.74470750000E+01 0. -1.
        -31    1    1    2    0    0  0.95793858532E-01 -0.21356447844E-01  0.62990508379E+02  0.63429273246E+02  0.74470750000E+01 0.  1.
<mgrwt>
<rscale>  0 0.14919916E+02</rscale>
<asrwt>0</asrwt>
<pdfrwt beam="1">  1        2 0.99256938E+00 0.14919916E+02</pdfrwt>
<pdfrwt beam="2">  1       -2 0.98849902E+00 0.14919916E+02</pdfrwt>
<totfact> 0.13401288E-13</totfact>
</mgrwt>
</event>
<event>
 4    1 -0.5245809E-019  0.1499250E+02  0.7818608E-02  0.1868297E+00
          2   -1    0    0  501    0  0.00000000000E+00  0.00000000000E+00  0.12025959149E+03  0.12025959151E+03  0.25500000000E-02 0. -1.
         -2   -1    0    0    0  501 -0.00000000000E+00 -0.00000000000E+00 -0.46726702219E+00  0.46727398015E+00  0.25500000000E-02 0.  1.
         31    1    1    2    0    0  0.24510757411E+00 -0.55726017613E+00  0.64755889118E+02  0.65185540713E+02  0.74470750000E+01 0. -1.
        -31    1    1    2    0    0 -0.24510757411E+00  0.55726017613E+00  0.55036435347E+02  0.55541324781E+02  0.74470750000E+01 0.  1.
<mgrwt>
<rscale>  0 0.14992500E+02</rscale>
<asrwt>0</asrwt>
<pdfrwt beam="1">  1        2 0.99825419E+00 0.14992500E+02</pdfrwt>
<pdfrwt beam="2">  1       -2 0.99245619E+00 0.14992500E+02</pdfrwt>
<totfact>-0.45117679E-14</totfact>
</mgrwt>
</event>
<event>
 4    1  0.5245809E-019  0.1493368E+02  0.7818608E-02  0.1870099E+00
          2   -1    0    0  501    0  0.00000000000E+00  0.00000000000E+00  0.11986493090E+03  0.11986493093E+03  0.25500000000E-02 0. -1.
         -2   -1    0    0    0  501 -0.00000000000E+00 -0.00000000000E+00 -0.46513417418E+00  0.46514116405E+00  0.25500000000E-02 0.  1.
         31    1    1    2    0    0  0.37806097387E+00 -0.19046388309E+00  0.56960716669E+02  0.57447031047E+02  0.74470750000E+01 0.  1.
        -31    1    1    2    0    0 -0.37806097387E+00  0.19046388309E+00  0.62439080057E+02  0.62883041045E+02  0.74470750000E+01 0. -1.
<mgrwt>
<rscale>  0 0.14933680E+02</rscale>
<asrwt>0</asrwt>
<pdfrwt beam="1">  1        2 0.99497323E+00 0.14933680E+02</pdfrwt>
<pdfrwt beam="2">  1       -2 0.98793110E+00 0.14933680E+02</pdfrwt>
<totfact> 0.15773399E-13</totfact>
</mgrwt>
</event>
<event>
 4    1 -0.5245809E-019  0.1500014E+02  0.7818608E-02  0.1868064E+00
          2   -1    0    0  501    0  0.00000000000E+00  0.00000000000E+00  0.11955221986E+03  0.11955221988E+03  0.25500000000E-02 0.  1.
         -2   -1    0    0    0  501 -0.00000000000E+00 -0.00000000000E+00 -0.47051071760E+00  0.47051762759E+00  0.25500000000E-02 0. -1.
         31    1    1    2    0    0  0.83555920285E+00  0.13459446806E+00  0.61744030760E+02  0.62197271125E+02  0.74470750000E+01 0.  1.
        -31    1    1    2    0    0 -0.83555920285E+00 -0.13459446806E+00  0.57337678380E+02  0.57825466387E+02  0.74470750000E+01 0. -1.
<mgrwt>
<rscale>  0 0.15000136E+02</rscale>
<asrwt>0</asrwt>
<pdfrwt beam="1">  1        2 0.99243197E+00 0.15000136E+02</pdfrwt>
<pdfrwt beam="2">  1       -2 0.99929568E+00 0.15000136E+02</pdfrwt>
<totfact>-0.34419853E-14</totfact>
</mgrwt>
</event>
<event>
 4    1 -0.5245809E-019  0.1501065E+02  0.7818608E-02  0.1867744E+00
         -2   -1    0    0    0  501 -0.00000000000E+00  0.00000000000E+00  0.12019044149E+03  0.12019044152E+03  0.25500000000E-02 0. -1.
          2   -1    0    0  501    0  0.00000000000E+00 -0.00000000000E+00 -0.46866885238E+00  0.46867578953E+00  0.25500000000E-02 0.  1.
         31    1    1    2    0    0 -0.15041185619E+00  0.77660536894E+00  0.63841805813E+02  0.64279552232E+02  0.74470750000E+01 0.  1.
        -31    1    1    2    0    0  0.15041185619E+00 -0.77660536894E+00  0.55879966827E+02  0.56379565076E+02  0.74470750000E+01 0. -1.
<mgrwt>
<rscale>  0 0.15010654E+02</rscale>
<asrwt>0</asrwt>
<pdfrwt beam="2">  1        2 0.99541980E+00 0.15010654E+02</pdfrwt>
<pdfrwt beam="1">  1       -2 0.99769400E+00 0.15010654E+02</pdfrwt>
<totfact>-0.75709044E-14</totfact>
</mgrwt>
</event>
<event>
 4    1  0.5245809E-019  0.1493357E+02  0.7818608E-02  0.1870103E+00
         -2   -1    0    0    0  501 -0.00000000000E+00  0.00000000000E+00  0.11912692155E+03  0.11912692158E+03  0.25500000000E-02 0. -1.
          2   -1    0    0  501    0  0.00000000000E+00 -0.00000000000E+00 -0.46800863455E+00  0.46801558148E+00  0.25500000000E-02 0.  1.
         31    1    1    2    0    0 -0.22874693156E+00  0.40149468437E+00  0.57058724880E+02  0.57544509157E+02  0.74470750000E+01 0.  1.
        -31    1    1    2    0    0  0.22874693156E+00 -0.40149468437E+00  0.61600188039E+02  0.62050428005E+02  0.74470750000E+01 0. -1.
<mgrwt>
<rscale>  0 0.14933566E+02</rscale>
<asrwt>0</asrwt>
<pdfrwt beam="2">  1        2 0.99398858E+00 0.14933566E+02</pdfrwt>
<pdfrwt beam="1">  1       -2 0.98889462E+00 0.14933566E+02</pdfrwt>
<totfact> 0.87726029E-14</totfact>
</mgrwt>
</event>
<event>
 4    1  0.5245809E-019  0.1494650E+02  0.7818608E-02  0.1869705E+00
         -2   -1    0    0    0  501 -0.00000000000E+00  0.00000000000E+00  0.11879689604E+03  0.11879689606E+03  0.25500000000E-02 0. -1.
          2   -1    0    0  501    0  0.00000000000E+00 -0.00000000000E+00 -0.47012222668E+00  0.47012914239E+00  0.25500000000E-02 0.  1.
         31    1    1    2    0    0 -0.43036272072E+00 -0.10643961239E+00  0.55648669205E+02  0.56146503470E+02  0.74470750000E+01 0. -1.
        -31    1    1    2    0    0  0.43036272072E+00  0.10643961239E+00  0.62678104604E+02  0.63120521737E+02  0.74470750000E+01 0. -1.
<mgrwt>
<rscale>  0 0.14946501E+02</rscale>
<asrwt>0</asrwt>
<pdfrwt beam="2">  1        2 0.99844896E+00 0.14946501E+02</pdfrwt>
<pdfrwt beam="1">  1       -2 0.98618321E+00 0.14946501E+02</pdfrwt>
<totfact> 0.14999842E-13</totfact>
</mgrwt>
</event>
<event>
 4    1 -0.5245809E-019  0.1491393E+02  0.7818608E-02  0.1870706E+00
         -2   -1    0    0    0  501 -0.00000000000E+00  0.00000000000E+00  0.11993904753E+03  0.11993904756E+03  0.25500000000E-02 0. -1.
          2   -1    0    0  501    0  0.00000000000E+00 -0.00000000000E+00 -0.46361812411E+00  0.46362513684E+00  0.25500000000E-02 0.  1.
         31    1    1    2    0    0 -0.14832555426E+00 -0.19361561070E+00  0.62131602952E+02  0.62576788819E+02  0.74470750000E+01 0. -1.
        -31    1    1    2    0    0  0.14832555426E+00  0.19361561070E+00  0.57343826456E+02  0.57825883877E+02  0.74470750000E+01 0.  1.
<mgrwt>
<rscale>  0 0.14913932E+02</rscale>
<asrwt>0</asrwt>
<pdfrwt beam="2">  1        2 0.98472585E+00 0.14913932E+02</pdfrwt>
<pdfrwt beam="1">  1       -2 0.99557354E+00 0.14913932E+02</pdfrwt>
<totfact>-0.35367652E-13</totfact>
</mgrwt>
</event>
<event>
 4    1  0.5245809E-019  0.1492122E+02  0.7818608E-02  0.1870482E+00
         -2   -1    0    0    0  501 -0.00000000000E+00  0.00000000000E+00  0.11878367200E+03  0.11878367202E+03  0.25500000000E-02 0.  1.
          2   -1    0    0  501    0  0.00000000000E+00 -0.00000000000E+00 -0.46858531722E+00  0.46859225561E+00  0.25500000000E-02 0. -1.
         31    1    1    2    0    0 -0.24831833145E+00 -0.30686419732E+00  0.60870662123E+02  0.61325787895E+02  0.74470750000E+01 0. -1.
        -31    1    1    2    0    0  0.24831833145E+00  0.30686419732E+00  0.57444424555E+02  0.57926476383E+02  0.74470750000E+01 0. -1.
<mgrwt>
<rscale>  0 0.14921220E+02</rscale>
<asrwt>0</asrwt>
<pdfrwt beam="2">  1        2 0.99519730E+00 0.14921220E+02</pdfrwt>
<pdfrwt beam="1">  1       -2 0.98606116E+00 0.14921220E+02</pdfrwt>
<totfact> 0.34211499E-13</totfact>
</mgrwt>
</event>
<event>
 4    1  0.5245809E-019  0.1493166E+02  0.7818608E-02  0.1870161E+00
          2   -1    0    0  501    0  0.00000000000E+00  0.00000000000E+00  0.12040418946E+03  0.12040418949E+03  0.25500000000E-02 0.  1.
         -2   -1    0    0    0  501 -0.00000000000E+00 -0.00000000000E+00 -0.46292542993E+00  0.46293245314E+00  0.25500000000E-02 0. -1.
         31    1    1    2    0    0 -0.32836943886E+00  0.88236031317E-01  0.63249222196E+02  0.63687036723E+02  0.74470750000E+01 0.  1.
        -31    1    1    2    0    0  0.32836943886E+00 -0.88236031317E-01  0.56692041837E+02  0.57180085220E+02  0.74470750000E+01 0.  1.
<mgrwt>
<rscale>  0 0.14931656E+02</rscale>
<asrwt>0</asrwt>
<pdfrwt beam="1">  1        2 0.99941393E+00 0.14931656E+02</pdfrwt>
<pdfrwt beam="2">  1       -2 0.98327485E+00 0.14931656E+02</pdfrwt>
<totfact> 0.14098978E-13</totfact>
</mgrwt>
</event>
<event>
 4    1 -0.5245809E-019  0.1490634E+02  0.7818608E-02  0.1870940E+00
         -2   -1    0    0    0  501 -0.00000000000E+00  0.00000000000E+00  0.11998274568E+03  0.11998274571E+03  0.25500000000E-02 0. -1.
          2   -1    0    0  501    0  0.00000000000E+00 -0.00000000000E+00 -0.46297764203E+00  0.46298466446E+00  0.25500000000E-02 0.  1.
         31    1    1    2    0    0  0.18075465301E+00 -0.18495254203E+00  0.58509480295E+02  0.58982074312E+02  0.74470750000E+01 0.  1.
        -31    1    1    2    0    0 -0.18075465301E+00  0.18495254203E+00  0.61010287746E+02  0.61463656062E+02  0.74470750000E+01 0. -1.
<mgrwt>
<rscale>  0 0.14906341E+02</rscale>
<asrwt>0</asrwt>
<pdfrwt beam="2">  1        2 0.98337210E+00 0.14906341E+02</pdfrwt>
<pdfrwt beam="1">  1       -2 0.99592957E+00 0.14906341E+02</pdfrwt>
<totfact>-0.42990253E-13</totfact>
</mgrwt>
</event>
<event>
 4    1 -0.5245809E-019  0.1498583E+02  0.7818608E-02  0.1868501E+00
         -2   -1    0    0    0  501 -0.00000000000E+00  0.00000000000E+00  0.12010290143E+03  0.12010290146E+03  0.25500000000E-02 0.  1.
          2   -1    0    0  501    0  0.00000000000E+00 -0.00000000000E+00 -0.46746061508E+00  0.46746757016E+00  0.25500000000E-02 0. -1.
         31    1    1    2    0    0  0.13414635550E+00  0.54266323949E+00  0.64727478687E+02  0.65156871486E+02  0.74470750000E+01 0.  1.
        -31    1    1    2    0    0 -0.13414635550E+00 -0.54266323949E+00  0.54907962130E+02  0.55413497543E+02  0.74470750000E+01 0. -1.
<mgrwt>
<rscale>  0 0.14985833E+02</rscale>
<asrwt>0</asrwt>
<pdfrwt beam="2">  1        2 0.99286076E+00 0.14985833E+02</pdfrwt>
<pdfrwt beam="1">  1       -2 0.99696017E+00 0.14985833E+02</pdfrwt>
<totfact>-0.11495710E-13</totfact>
</mgrwt>
</event>
<event>
 4    1  0.5245809E-019  0.1492935E+02  0.7818608E-02  0.1870232E+00
          2   -1    0    0  501    0  0.00000000000E+00  0.00000000000E+00  0.12016010720E+03  0.12016010723E+03  0.25500000000E-02 0. -1.
         -2   -1    0    0    0  501 -0.00000000000E+00 -0.00000000000E+00 -0.46372250996E+00  0.46372952110E+00  0.25500000000E-02 0.  1.
         31    1    1    2    0    0 -0.87936011400E-01 -0.35759768175E+00  0.62725681369E+02  0.63167282973E+02  0.74470750000E+01 0. -1.
        -31    1    1    2    0    0  0.87936011400E-01  0.35759768175E+00  0.56970703319E+02  0.57456553774E+02  0.74470750000E+01 0.  1.
<mgrwt>
<rscale>  0 0.14929350E+02</rscale>
<asrwt>0</asrwt>
<pdfrwt beam="1">  1        2 0.99740228E+00 0.14929350E+02</pdfrwt>
<pdfrwt beam="2">  1       -2 0.98495369E+00 0.14929350E+02</pdfrwt>
<totfact> 0.32807749E-13</totfact>
</mgrwt>
</event>
<event>
 4    1 -0.5245809E-019  0.1499461E+02  0.7818608E-02  0.1868233E+00
          2   -1    0    0  501    0  0.00000000000E+00  0.00000000000E+00  0.11970995838E+03  0.11970995841E+03  0.25500000000E-02 0.  1.
         -2   -1    0    0    0  501 -0.00000000000E+00 -0.00000000000E+00 -0.46954480889E+00  0.46955173310E+00  0.25500000000E-02 0. -1.
         31    1    1    2    0    0 -0.63146554043E+00 -0.51576890712E+00  0.61969457493E+02  0.62420648461E+02  0.74470750000E+01 0. -1.
        -31    1    1    2    0    0  0.63146554043E+00  0.51576890712E+00  0.57270956077E+02  0.57758861678E+02  0.74470750000E+01 0.  1.
<mgrwt>
<rscale>  0 0.14994613E+02</rscale>
<asrwt>0</asrwt>
<pdfrwt beam="1">  1        2 0.99372828E+00 0.14994613E+02</pdfrwt>
<pdfrwt beam="2">  1       -2 0.99725742E+00 0.14994613E+02</pdfrwt>
<totfact>-0.10066666E-13</totfact>
</mgrwt>
</event>
<event>
 4    1 -0.5245809E-019  0.1491122E+02  0.7818608E-02  0.1870790E+00
          2   -1    0    0  501    0  0.00000000000E+00  0.00000000000E+00  0.11828952799E+03  0.11828952802E+03  0.25500000000E-02 0.  1.
         -2   -1    0    0    0  501 -0.00000000000E+00 -0.00000000000E+00 -0.46991256563E+00  0.46991948442E+00  0.25500000000E-02 0. -1.
         31    1    1    2    0    0  0.13564285391E+00 -0.16931264049E+00  0.61164688372E+02  0.61616759859E+02  0.74470750000E+01 0.  1.
        -31    1    1    2    0    0 -0.13564285391E+00  0.16931264049E+00  0.56654927054E+02  0.57142687645E+02  0.74470750000E+01 0. -1.
<mgrwt>
<rscale>  0 0.14911224E+02</rscale>
<asrwt>0</asrwt>
<pdfrwt beam="1">  1        2 0.98198620E+00 0.14911224E+02</pdfrwt>
<pdfrwt beam="2">  1       -2 0.99798857E+00 0.14911224E+02</pdfrwt>
<totfact>-0.34312442E-13</totfact>
</mgrwt>
</event>
<event>
 4    1 -0.5245809E-019  0.1494280E+02  0.7818608E-02  0.1869819E+00
          2   -1    0    0  501    0  0.00000000000E+00  0.00000000000E+00  0.11882074749E+03  0.11882074751E+03  0.25500000000E-02 0. -1.
         -2   -1    0    0    0  501 -0.00000000000E+00 -0.00000000000E+00 -0.46979498724E+00  0.46980190776E+00  0.25500000000E-02 0.  1.
         31    1    1    2    0    0  0.45023360152E-02  0.17403877795E+00  0.54571683919E+02  0.55077744340E+02  0.74470750000E+01 0.  1.
        -31    1    1    2    0    0 -0.45023360152E-02 -0.17403877795E+00  0.63779268580E+02  0.64212805082E+02  0.74470750000E+01 0. -1.
<mgrwt>
<rscale>  0 0.14942798E+02</rscale>
<asrwt>0</asrwt>
<pdfrwt beam="1">  1        2 0.98637773E+00 0.14942798E+02</pdfrwt>
<pdfrwt beam="2">  1       -2 0.99775750E+00 0.14942798E+02</pdfrwt>
<totfact>-0.18200555E-13</totfact>
</mgrwt>
</event>
<event>
 4    1  0.5245809E-019  0.1493739E+02  0.7818608E-02  0.1869985E+00
          2   -1    0    0  501    0  0.00000000000E+00  0.00000000000E+00  0.12002623132E+03  0.12002623135E+03  0.25500000000E-02 0. -1.
         -2   -1    0    0    0  501 -0.00000000000E+00 -0.00000000000E+00 -0.46473962996E+00  0.46474662576E+00  0.25500000000E-02 0.  1.
         31    1    1    2    0    0 -0.26351783905E+00  0.48740154808E+00  0.60783106468E+02  0.61240117242E+02  0.74470750000E+01 0. -1.
        -31    1    1    2    0    0  0.26351783905E+00 -0.48740154808E+00  0.58778385222E+02  0.59250860730E+02  0.74470750000E+01 0. -1.
<mgrwt>
<rscale>  0 0.14937385E+02</rscale>
<asrwt>0</asrwt>
<pdfrwt beam="1">  1        2 0.99630371E+00 0.14937385E+02</pdfrwt>
<pdfrwt beam="2">  1       -2 0.98710147E+00 0.14937385E+02</pdfrwt>
<totfact> 0.19874262E-13</totfact>
</mgrwt>
</event>
<event>
 4    1  0.5245809E-019  0.1490766E+02  0.7818608E-02  0.1870899E+00
         -2   -1    0    0    0  501 -0.00000000000E+00  0.00000000000E+00  0.11802347214E+03  0.11802347217E+03  0.25500000000E-02 0. -1.
          2   -1    0    0  501    0  0.00000000000E+00 -0.00000000000E+00 -0.47074667130E+00  0.47075357783E+00  0.25500000000E-02 0.  1.
         31    1    1    2    0    0 -0.21301823018E+00  0.22705165787E+00  0.58292075457E+02  0.58766673518E+02  0.74470750000E+01 0. -1.
        -31    1    1    2    0    0  0.21301823018E+00 -0.22705165787E+00  0.59260650015E+02  0.59727552230E+02  0.74470750000E+01 0.  1.
<mgrwt>
<rscale>  0 0.14907658E+02</rscale>
<asrwt>0</asrwt>
<pdfrwt beam="2">  1        2 0.99974404E+00 0.14907658E+02</pdfrwt>
<pdfrwt beam="1">  1       -2 0.97979316E+00 0.14907658E+02</pdfrwt>
<totfact> 0.12484679E-13</totfact>
</mgrwt>
</event>
<event>
 4    1 -0.5245809E-019  0.1499076E+02  0.7818608E-02  0.1868350E+00
         -2   -1    0    0    0  501 -0.00000000000E+00  0.00000000000E+00  0.11988713149E+03  0.11988713152E+03  0.25500000000E-02 0.  1.
          2   -1    0    0  501    0  0.00000000000E+00 -0.00000000000E+00 -0.46861017146E+00  0.46861710948E+00  0.25500000000E-02 0. -1.
         31    1    1    2    0    0 -0.21184012259E+00  0.80250267079E+00  0.58252206734E+02  0.58732166674E+02  0.74470750000E+01 0.  1.
        -31    1    1    2    0    0  0.21184012259E+00 -0.80250267079E+00  0.61166314589E+02  0.61623581957E+02  0.74470750000E+01 0.  1.
<mgrwt>
<rscale>  0 0.14990764E+02</rscale>
<asrwt>0</asrwt>
<pdfrwt beam="2">  1        2 0.99528587E+00 0.14990764E+02</pdfrwt>
<pdfrwt beam="1">  1       -2 0.99518554E+00 0.14990764E+02</pdfrwt>
<totfact>-0.11503039E-13</totfact>
</mgrwt>
</event>
<event>
 4    1 -0.5245809E-019  0.1498544E+02  0.7818608E-02  0.1868513E+00
         -2   -1    0    0    0  501 -0.00000000000E+00  0.00000000000E+00  0.11996332820E+03  0.11996332823E+03  0.25500000000E-02 0. -1.
          2   -1    0    0  501    0  0.00000000000E+00 -0.00000000000E+00 -0.46798009302E+00  0.46798704038E+00  0.25500000000E-02 0.  1.
         31    1    1    2    0    0 -0.42756136672E-01 -0.57348626598E+00  0.54984845595E+02  0.55489844888E+02  0.74470750000E+01 0.  1.
        -31    1    1    2    0    0  0.42756136672E-01  0.57348626598E+00  0.64510502513E+02  0.64941470380E+02  0.74470750000E+01 0. -1.
<mgrwt>
<rscale>  0 0.14985442E+02</rscale>
<asrwt>0</asrwt>
<pdfrwt beam="2">  1        2 0.99395532E+00 0.14985442E+02</pdfrwt>
<pdfrwt beam="1">  1       -2 0.99581038E+00 0.14985442E+02</pdfrwt>
<totfact>-0.12534256E-13</totfact>
</mgrwt>
</event>
<event>
 4    1 -0.5245809E-019  0.1494804E+02  0.7818608E-02  0.1869658E+00
         -2   -1    0    0    0  501 -0.00000000000E+00  0.00000000000E+00  0.11985635333E+03  0.11985635335E+03  0.25500000000E-02 0.  1.
          2   -1    0    0  501    0  0.00000000000E+00 -0.00000000000E+00 -0.46606246483E+00  0.46606944077E+00  0.25500000000E-02 0. -1.
         31    1    1    2    0    0 -0.30682608362E+00  0.51234586594E+00  0.57980000978E+02  0.58459354085E+02  0.74470750000E+01 0. -1.
        -31    1    1    2    0    0  0.30682608362E+00 -0.51234586594E+00  0.61410289883E+02  0.61863068709E+02  0.74470750000E+01 0.  1.
<mgrwt>
<rscale>  0 0.14948039E+02</rscale>
<asrwt>0</asrwt>
<pdfrwt beam="2">  1        2 0.98989482E+00 0.14948039E+02</pdfrwt>
<pdfrwt beam="1">  1       -2 0.99490998E+00 0.14948039E+02</pdfrwt>
<totfact>-0.18065224E-13</totfact>
</mgrwt>
</event>
<event>
 4    1  0.5245809E-019  0.1490920E+02  0.7818608E-02  0.1870852E+00
          2   -1    0    0  501    0  0.00000000000E+00  0.00000000000E+00  0.12008691587E+03  0.12008691590E+03  0.25500000000E-02 0. -1.
         -2   -1    0    0    0  501 -0.00000000000E+00 -0.00000000000E+00 -0.46275352309E+00  0.46276054892E+00  0.25500000000E-02 0.  1.
         31    1    1    2    0    0  0.17841006425E+00  0.65932187932E-01  0.62040614665E+02  0.62486262260E+02  0.74470750000E+01 0. -1.
        -31    1    1    2    0    0 -0.17841006425E+00 -0.65932187932E-01  0.57583547686E+02  0.58063414189E+02  0.74470750000E+01 0.  1.
<mgrwt>
<rscale>  0 0.14909201E+02</rscale>
<asrwt>0</asrwt>
<pdfrwt beam="1">  1        2 0.99678907E+00 0.14909201E+02</pdfrwt>
<pdfrwt beam="2">  1       -2 0.98290118E+00 0.14909201E+02</pdfrwt>
<totfact> 0.62846626E-13</totfact>
</mgrwt>
</event>
<event>
 4    1 -0.5245809E-019  0.1499098E+02  0.7818608E-02  0.1868344E+00
          2   -1    0    0  501    0  0.00000000000E+00  0.00000000000E+00  0.11956658132E+03  0.11956658134E+03  0.25500000000E-02 0.  1.
         -2   -1    0    0    0  501 -0.00000000000E+00 -0.00000000000E+00 -0.46988015524E+00  0.46988707450E+00  0.25500000000E-02 0. -1.
         31    1    1    2    0    0  0.34037840198E+00  0.51836574073E+00  0.64209737797E+02  0.64643127358E+02  0.74470750000E+01 0.  1.
        -31    1    1    2    0    0 -0.34037840198E+00 -0.51836574073E+00  0.54886963362E+02  0.55393341059E+02  0.74470750000E+01 0. -1.
<mgrwt>
<rscale>  0 0.14990981E+02</rscale>
<asrwt>0</asrwt>
<pdfrwt beam="1">  1        2 0.99254551E+00 0.14990981E+02</pdfrwt>
<pdfrwt beam="2">  1       -2 0.99796219E+00 0.14990981E+02</pdfrwt>
<totfact>-0.87821959E-14</totfact>
</mgrwt>
</event>
<event>
 4    1 -0.5245809E-019  0.1491203E+02  0.7818608E-02  0.1870765E+00
         -2   -1    0    0    0  501 -0.00000000000E+00  0.00000000000E+00  0.12011892398E+03  0.12011892400E+03  0.25500000000E-02 0. -1.
          2   -1    0    0  501    0  0.00000000000E+00 -0.00000000000E+00 -0.46280575336E+00  0.46281277839E+00  0.25500000000E-02 0.  1.
         31    1    1    2    0    0 -0.12996910673E+00 -0.20683546337E+00  0.62021126176E+02  0.62467100870E+02  0.74470750000E+01 0. -1.
        -31    1    1    2    0    0  0.12996910673E+00  0.20683546337E+00  0.57634992046E+02  0.58114635911E+02  0.74470750000E+01 0.  1.
<mgrwt>
<rscale>  0 0.14912029E+02</rscale>
<asrwt>0</asrwt>
<pdfrwt beam="2">  1        2 0.98301269E+00 0.14912029E+02</pdfrwt>
<pdfrwt beam="1">  1       -2 0.99705417E+00 0.14912029E+02</pdfrwt>
<totfact>-0.38243181E-13</totfact>
</mgrwt>
</event>
<event>
 4    1 -0.5245809E-019  0.1490238E+02  0.7818608E-02  0.1871062E+00
         -2   -1    0    0    0  501 -0.00000000000E+00  0.00000000000E+00  0.11997789787E+03  0.11997789790E+03  0.25500000000E-02 0. -1.
          2   -1    0    0  501    0  0.00000000000E+00 -0.00000000000E+00 -0.46275040053E+00  0.46275742640E+00  0.25500000000E-02 0.  1.
         31    1    1    2    0    0 -0.79539199215E-01 -0.23045133415E+00  0.60108434789E+02  0.60568492578E+02  0.74470750000E+01 0. -1.
        -31    1    1    2    0    0  0.79539199215E-01  0.23045133415E+00  0.59406712684E+02  0.59872162750E+02  0.74470750000E+01 0. -1.
<mgrwt>
<rscale>  0 0.14902382E+02</rscale>
<asrwt>0</asrwt>
<pdfrwt beam="2">  1        2 0.98289114E+00 0.14902382E+02</pdfrwt>
<pdfrwt beam="1">  1       -2 0.99588761E+00 0.14902382E+02</pdfrwt>
<totfact>-0.46820787E-13</totfact>
</mgrwt>
</event>
<event>
 4    1 -0.5245809E-019  0.1499171E+02  0.7818608E-02  0.1868322E+00
          2   -1    0    0  501    0  0.00000000000E+00  0.00000000000E+00  0.12019246617E+03  0.12019246620E+03  0.25500000000E-02 0.  1.
         -2   -1    0    0    0  501 -0.00000000000E+00 -0.00000000000E+00 -0.46747881017E+00  0.46748576498E+00  0.25500000000E-02 0. -1.
         31    1    1    2    0    0 -0.23996737866E+00 -0.36149311200E+00  0.53944480693E+02  0.54457820236E+02  0.74470750000E+01 0.  1.
        -31    1    1    2    0    0  0.23996737866E+00  0.36149311200E+00  0.65780506670E+02  0.66202131729E+02  0.74470750000E+01 0.  1.
<mgrwt>
<rscale>  0 0.14991711E+02</rscale>
<asrwt>0</asrwt>
<pdfrwt beam="1">  1        2 0.99770090E+00 0.14991711E+02</pdfrwt>
<pdfrwt beam="2">  1       -2 0.99290213E+00 0.14991711E+02</pdfrwt>
<totfact>-0.62044393E-14</totfact>
</mgrwt>
</event>
<event>
 4    1 -0.5245809E-019  0.1490846E+02  0.7818608E-02  0.1870875E+00
         -2   -1    0    0    0  501 -0.00000000000E+00  0.00000000000E+00  0.12018879595E+03  0.12018879598E+03  0.25500000000E-02 0. -1.
          2   -1    0    0  501    0  0.00000000000E+00 -0.00000000000E+00 -0.46231549785E+00  0.46232253033E+00  0.25500000000E-02 0.  1.
         31    1    1    2    0    0  0.30269329408E+00  0.11728652004E+00  0.59575576725E+02  0.60040100329E+02  0.74470750000E+01 0. -1.
        -31    1    1    2    0    0 -0.30269329408E+00 -0.11728652004E+00  0.60150903728E+02  0.60611018179E+02  0.74470750000E+01 0. -1.
<mgrwt>
<rscale>  0 0.14908463E+02</rscale>
<asrwt>0</asrwt>
<pdfrwt beam="2">  1        2 0.98197757E+00 0.14908463E+02</pdfrwt>
<pdfrwt beam="1">  1       -2 0.99762786E+00 0.14908463E+02</pdfrwt>
<totfact>-0.39073701E-13</totfact>
</mgrwt>
</event>
<event>
 4    1 -0.5245809E-019  0.1493671E+02  0.7818608E-02  0.1870006E+00
         -2   -1    0    0    0  501 -0.00000000000E+00  0.00000000000E+00  0.12025733335E+03  0.12025733338E+03  0.25500000000E-02 0. -1.
          2   -1    0    0  501    0  0.00000000000E+00 -0.00000000000E+00 -0.46380449880E+00  0.46381150871E+00  0.25500000000E-02 0.  1.
         31    1    1    2    0    0 -0.38370448318E+00  0.28781106421E+00  0.57508394130E+02  0.57990554281E+02  0.74470750000E+01 0.  1.
        -31    1    1    2    0    0  0.38370448318E+00 -0.28781106421E+00  0.62285134720E+02  0.62730590604E+02  0.74470750000E+01 0. -1.
<mgrwt>
<rscale>  0 0.14936709E+02</rscale>
<asrwt>0</asrwt>
<pdfrwt beam="2">  1        2 0.98513023E+00 0.14936709E+02</pdfrwt>
<pdfrwt beam="1">  1       -2 0.99820689E+00 0.14936709E+02</pdfrwt>
<totfact>-0.18473404E-13</totfact>
</mgrwt>
</event>
<event>
 4    1 -0.5245809E-019  0.1501142E+02  0.7818608E-02  0.1867720E+00
          2   -1    0    0  501    0  0.00000000000E+00  0.00000000000E+00  0.12020641547E+03  0.12020641550E+03  0.25500000000E-02 0. -1.
         -2   -1    0    0    0  501 -0.00000000000E+00 -0.00000000000E+00 -0.46865445158E+00  0.46866138895E+00  0.25500000000E-02 0.  1.
         31    1    1    2    0    0  0.46088937855E+00  0.69657976725E+00  0.63271176091E+02  0.63713407477E+02  0.74470750000E+01 0. -1.
        -31    1    1    2    0    0 -0.46088937855E+00 -0.69657976725E+00  0.56466584930E+02  0.56961669411E+02  0.74470750000E+01 0.  1.
<mgrwt>
<rscale>  0 0.15011421E+02</rscale>
<asrwt>0</asrwt>
<pdfrwt beam="1">  1        2 0.99782597E+00 0.15011421E+02</pdfrwt>
<pdfrwt beam="2">  1       -2 0.99538985E+00 0.15011421E+02</pdfrwt>
<totfact>-0.68829631E-14</totfact>
</mgrwt>
</event>
<event>
 4    1  0.5245809E-019  0.1493273E+02  0.7818608E-02  0.1870128E+00
          2   -1    0    0  501    0  0.00000000000E+00  0.00000000000E+00  0.11984545335E+03  0.11984545338E+03  0.25500000000E-02 0.  1.
         -2   -1    0    0    0  501 -0.00000000000E+00 -0.00000000000E+00 -0.46515035469E+00  0.46515734431E+00  0.25500000000E-02 0. -1.
         31    1    1    2    0    0  0.23192415949E+00 -0.52129061850E-01  0.55816620745E+02  0.56311726876E+02  0.74470750000E+01 0. -1.
        -31    1    1    2    0    0 -0.23192415949E+00  0.52129061850E-01  0.63563682255E+02  0.63998883851E+02  0.74470750000E+01 0.  1.
<mgrwt>
<rscale>  0 0.14932726E+02</rscale>
<asrwt>0</asrwt>
<pdfrwt beam="1">  1        2 0.99481231E+00 0.14932726E+02</pdfrwt>
<pdfrwt beam="2">  1       -2 0.98796471E+00 0.14932726E+02</pdfrwt>
<totfact> 0.15730105E-13</totfact>
</mgrwt>
</event>
<event>
 4    1  0.5245809E-019  0.1489895E+02  0.7818608E-02  0.1871168E+00
         -2   -1    0    0    0  501 -0.00000000000E+00  0.00000000000E+00  0.11811079504E+03  0.11811079506E+03  0.25500000000E-02 0.  1.
          2   -1    0    0  501    0  0.00000000000E+00 -0.00000000000E+00 -0.46984925813E+00  0.46985617786E+00  0.25500000000E-02 0. -1.
         31    1    1    2    0    0  0.92596150686E-02 -0.12571569104E+00  0.59942242108E+02  0.60403205255E+02  0.74470750000E+01 0. -1.
        -31    1    1    2    0    0 -0.92596150686E-02  0.12571569104E+00  0.57698703670E+02  0.58177445986E+02  0.74470750000E+01 0. -1.
<mgrwt>
<rscale>  0 0.14898950E+02</rscale>
<asrwt>0</asrwt>
<pdfrwt beam="2">  1        2 0.99784868E+00 0.14898950E+02</pdfrwt>
<pdfrwt beam="1">  1       -2 0.98050779E+00 0.14898950E+02</pdfrwt>
<totfact> 0.75316092E-13</totfact>
</mgrwt>
</event>
<event>
 4    1 -0.5245809E-019  0.1491197E+02  0.7818608E-02  0.1870767E+00
          2   -1    0    0  501    0  0.00000000000E+00  0.00000000000E+00  0.11824148840E+03  0.11824148843E+03  0.25500000000E-02 0. -1.
         -2   -1    0    0    0  501 -0.00000000000E+00 -0.00000000000E+00 -0.47015084724E+00  0.47015776252E+00  0.25500000000E-02 0.  1.
         31    1    1    2    0    0  0.30098706379E-01  0.75687226223E-01  0.61713583672E+02  0.62161338227E+02  0.74470750000E+01 0. -1.
        -31    1    1    2    0    0 -0.30098706379E-01 -0.75687226223E-01  0.56057753881E+02  0.56550307963E+02  0.74470750000E+01 0.  1.
<mgrwt>
<rscale>  0 0.14911975E+02</rscale>
<asrwt>0</asrwt>
<pdfrwt beam="1">  1        2 0.98159095E+00 0.14911975E+02</pdfrwt>
<pdfrwt beam="2">  1       -2 0.99849101E+00 0.14911975E+02</pdfrwt>
<totfact>-0.28842251E-13</totfact>
</mgrwt>
</event>
<event>
 4    1 -0.5245809E-019  0.1498936E+02  0.7818608E-02  0.1868393E+00
         -2   -1    0    0    0  501 -0.00000000000E+00  0.00000000000E+00  0.12037302394E+03  0.12037302397E+03  0.25500000000E-02 0.  1.
          2   -1    0    0  501    0  0.00000000000E+00 -0.00000000000E+00 -0.46663096612E+00  0.46663793357E+00  0.25500000000E-02 0. -1.
         31    1    1    2    0    0  0.46598612172E-01  0.80663257009E+00  0.61902218764E+02  0.62353800538E+02  0.74470750000E+01 0. -1.
        -31    1    1    2    0    0 -0.46598612172E-01 -0.80663257009E+00  0.58004174211E+02  0.58485861364E+02  0.74470750000E+01 0. -1.
<mgrwt>
<rscale>  0 0.14989357E+02</rscale>
<asrwt>0</asrwt>
<pdfrwt beam="2">  1        2 0.99111409E+00 0.14989357E+02</pdfrwt>
<pdfrwt beam="1">  1       -2 0.99918687E+00 0.14989357E+02</pdfrwt>
<totfact>-0.43489346E-14</totfact>
</mgrwt>
</event>
<event>
 4    1  0.5245809E-019  0.1490023E+02  0.7818608E-02  0.1871128E+00
         -2   -1    0    0    0  501 -0.00000000000E+00  0.00000000000E+00  0.11891784922E+03  0.11891784925E+03  0.25500000000E-02 0.  1.
          2   -1    0    0  501    0  0.00000000000E+00 -0.00000000000E+00 -0.46674091711E+00  0.46674788291E+00  0.25500000000E-02 0. -1.
         31    1    1    2    0    0 -0.11676659574E+00 -0.13757947285E+00  0.58320670573E+02  0.58794490428E+02  0.74470750000E+01 0. -1.
        -31    1    1    2    0    0  0.11676659574E+00  0.13757947285E+00  0.60130437734E+02  0.60590106706E+02  0.74470750000E+01 0.  1.
<mgrwt>
<rscale>  0 0.14900234E+02</rscale>
<asrwt>0</asrwt>
<pdfrwt beam="2">  1        2 0.99129986E+00 0.14900234E+02</pdfrwt>
<pdfrwt beam="1">  1       -2 0.98715538E+00 0.14900234E+02</pdfrwt>
<totfact> 0.30777950E-13</totfact>
</mgrwt>
</event>
<event>
 4    1  0.5245809E-019  0.1492835E+02  0.7818608E-02  0.1870263E+00
          2   -1    0    0  501    0  0.00000000000E+00  0.00000000000E+00  0.12030603040E+03  0.12030603043E+03  0.25500000000E-02 0. -1.
         -2   -1    0    0    0  501 -0.00000000000E+00 -0.00000000000E+00 -0.46309824451E+00  0.46310526510E+00  0.25500000000E-02 0.  1.
         31    1    1    2    0    0  0.25821852230E+00 -0.22708674258E+00  0.62913267718E+02  0.63353424740E+02  0.74470750000E+01 0. -1.
        -31    1    1    2    0    0 -0.25821852230E+00  0.22708674258E+00  0.56929664442E+02  0.57415710957E+02  0.74470750000E+01 0.  1.
<mgrwt>
<rscale>  0 0.14928354E+02</rscale>
<asrwt>0</asrwt>
<pdfrwt beam="1">  1        2 0.99860371E+00 0.14928354E+02</pdfrwt>
<pdfrwt beam="2">  1       -2 0.98363743E+00 0.14928354E+02</pdfrwt>
<totfact> 0.28238040E-13</totfact>
</mgrwt>
</event>
<event>
 4    1 -0.5245809E-019  0.1490002E+02  0.7818608E-02  0.1871135E+00
          2   -1    0    0  501    0  0.00000000000E+00  0.00000000000E+00  0.11814096655E+03  0.11814096658E+03  0.25500000000E-02 0. -1.
         -2   -1    0    0    0  501 -0.00000000000E+00 -0.00000000000E+00 -0.46979699850E+00  0.46980391899E+00  0.25500000000E-02 0.  1.
         31    1    1    2    0    0 -0.19749648820E+00 -0.68814729138E-01  0.58802614095E+02  0.59272675751E+02  0.74470750000E+01 0. -1.
        -31    1    1    2    0    0  0.19749648820E+00  0.68814729138E-01  0.58868555458E+02  0.59338094746E+02  0.74470750000E+01 0.  1.
<mgrwt>
<rscale>  0 0.14900025E+02</rscale>
<asrwt>0</asrwt>
<pdfrwt beam="1">  1        2 0.98075684E+00 0.14900025E+02</pdfrwt>
<pdfrwt beam="2">  1       -2 0.99773915E+00 0.14900025E+02</pdfrwt>
<totfact>-0.46229463E-13</totfact>
</mgrwt>
</event>
<event>
 4    1  0.5245809E-019  0.1490756E+02  0.7818608E-02  0.1870902E+00
         -2   -1    0    0    0  501 -0.00000000000E+00  0.00000000000E+00  0.11863315265E+03  0.11863315268E+03  0.25500000000E-02 0. -1.
          2   -1    0    0  501    0  0.00000000000E+00 -0.00000000000E+00 -0.46832135184E+00  0.46832829413E+00  0.25500000000E-02 0.  1.
         31    1    1    2    0    0 -0.11787160900E+00 -0.10659908176E+00  0.56899260593E+02  0.57384754414E+02  0.74470750000E+01 0.  1.
        -31    1    1    2    0    0  0.11787160900E+00  0.10659908176E+00  0.61265570704E+02  0.61716726556E+02  0.74470750000E+01 0. -1.
<mgrwt>
<rscale>  0 0.14907562E+02</rscale>
<asrwt>0</asrwt>
<pdfrwt beam="2">  1        2 0.99463393E+00 0.14907562E+02</pdfrwt>
<pdfrwt beam="1">  1       -2 0.98481438E+00 0.14907562E+02</pdfrwt>
<totfact> 0.52920636E-13</totfact>
</mgrwt>
</event>
<event>
 4    1 -0.5245809E-019  0.1497026E+02  0.7818608E-02  0.1868977E+00
          2   -1    0    0  501    0  0.00000000000E+00  0.00000000000E+00  0.11937009985E+03  0.11937009987E+03  0.25500000000E-02 0.  1.
         -2   -1    0    0    0  501 -0.00000000000E+00 -0.00000000000E+00 -0.46935350874E+00  0.46936043577E+00  0.25500000000E-02 0. -1.
         31    1    1    2    0    0 -0.53635330976E+00  0.27665093948E+00  0.63066505248E+02  0.63507536725E+02  0.74470750000E+01 0.  1.
        -31    1    1    2    0    0  0.53635330976E+00 -0.27665093948E+00  0.55834241091E+02  0.56331923586E+02  0.74470750000E+01 0. -1.
<mgrwt>
<rscale>  0 0.14970263E+02</rscale>
<asrwt>0</asrwt>
<pdfrwt beam="1">  1        2 0.99091651E+00 0.14970263E+02</pdfrwt>
<pdfrwt beam="2">  1       -2 0.99684163E+00 0.14970263E+02</pdfrwt>
<totfact>-0.13623487E-13</totfact>
</mgrwt>
</event>
<event>
 4    1  0.5245809E-019  0.1489967E+02  0.7818608E-02  0.1871146E+00
         -2   -1    0    0    0  501 -0.00000000000E+00  0.00000000000E+00  0.11823344391E+03  0.11823344393E+03  0.25500000000E-02 0. -1.
          2   -1    0    0  501    0  0.00000000000E+00 -0.00000000000E+00 -0.46940719307E+00  0.46941411931E+00  0.25500000000E-02 0.  1.
         31    1    1    2    0    0 -0.18651814728E+00  0.55843530096E-01  0.59333264259E+02  0.59799106023E+02  0.74470750000E+01 0. -1.
        -31    1    1    2    0    0  0.18651814728E+00 -0.55843530096E-01  0.58430772455E+02  0.58903752030E+02  0.74470750000E+01 0.  1.
<mgrwt>
<rscale>  0 0.14899670E+02</rscale>
<asrwt>0</asrwt>
<pdfrwt beam="2">  1        2 0.99691766E+00 0.14899670E+02</pdfrwt>
<pdfrwt beam="1">  1       -2 0.98151828E+00 0.14899670E+02</pdfrwt>
<totfact> 0.81032495E-13</totfact>
</mgrwt>
</event>
<event>
 4    1 -0.5245809E-019  0.1495777E+02  0.7818608E-02  0.1869360E+00
          2   -1    0    0  501    0  0.00000000000E+00  0.00000000000E+00  0.11955056894E+03  0.11955056896E+03  0.25500000000E-02 0.  1.
         -2   -1    0    0    0  501 -0.00000000000E+00 -0.00000000000E+00 -0.46786300647E+00  0.46786995557E+00  0.25500000000E-02 0. -1.
         31    1    1    2    0    0  0.25981326402E+00 -0.55124761917E+00  0.56961169869E+02  0.57449152959E+02  0.74470750000E+01 0. -1.
        -31    1    1    2    0    0 -0.25981326402E+00  0.55124761917E+00  0.62121536060E+02  0.62569285959E+02  0.74470750000E+01 0.  1.
<mgrwt>
<rscale>  0 0.14957768E+02</rscale>
<asrwt>0</asrwt>
<pdfrwt beam="1">  1        2 0.99239643E+00 0.14957768E+02</pdfrwt>
<pdfrwt beam="2">  1       -2 0.99369428E+00 0.14957768E+02</pdfrwt>
<totfact>-0.14037360E-13</totfact>
</mgrwt>
</event>
<event>
 4    1 -0.5245809E-019  0.1496231E+02  0.7818608E-02  0.1869221E+00
         -2   -1    0    0    0  501 -0.00000000000E+00  0.00000000000E+00  0.11968658183E+03  0.11968658185E+03  0.25500000000E-02 0. -1.
          2   -1    0    0  501    0  0.00000000000E+00 -0.00000000000E+00 -0.46761538240E+00  0.46762233518E+00  0.25500000000E-02 0.  1.
         31    1    1    2    0    0  0.40631799332E+00 -0.56466791846E+00  0.60875034163E+02  0.61332802435E+02  0.74470750000E+01 0.  1.
        -31    1    1    2    0    0 -0.40631799332E+00  0.56466791846E+00  0.58343932281E+02  0.58821401753E+02  0.74470750000E+01 0.  1.
<mgrwt>
<rscale>  0 0.14962313E+02</rscale>
<asrwt>0</asrwt>
<pdfrwt beam="2">  1        2 0.99317480E+00 0.14962313E+02</pdfrwt>
<pdfrwt beam="1">  1       -2 0.99351903E+00 0.14962313E+02</pdfrwt>
<totfact>-0.13028648E-13</totfact>
</mgrwt>
</event>
<event>
 4    1 -0.5245809E-019  0.1498146E+02  0.7818608E-02  0.1868635E+00
          2   -1    0    0  501    0  0.00000000000E+00  0.00000000000E+00  0.11943810391E+03  0.11943810394E+03  0.25500000000E-02 0.  1.
         -2   -1    0    0    0  501 -0.00000000000E+00 -0.00000000000E+00 -0.46978807652E+00  0.46979499715E+00  0.25500000000E-02 0. -1.
         31    1    1    2    0    0  0.41537783857E+00  0.48902064812E+00  0.55559806556E+02  0.56060348826E+02  0.74470750000E+01 0. -1.
        -31    1    1    2    0    0 -0.41537783857E+00 -0.48902064812E+00  0.63408509281E+02  0.63847550111E+02  0.74470750000E+01 0.  1.
<mgrwt>
<rscale>  0 0.14981457E+02</rscale>
<asrwt>0</asrwt>
<pdfrwt beam="1">  1        2 0.99148240E+00 0.14981457E+02</pdfrwt>
<pdfrwt beam="2">  1       -2 0.99776319E+00 0.14981457E+02</pdfrwt>
<totfact>-0.10216764E-13</totfact>
</mgrwt>
</event>
<event>
 4    1 -0.5245809E-019  0.1490185E+02  0.7818608E-02  0.1871078E+00
         -2   -1    0    0    0  501 -0.00000000000E+00  0.00000000000E+00  0.11963269733E+03  0.11963269736E+03  0.25500000000E-02 0.  1.
          2   -1    0    0  501    0  0.00000000000E+00 -0.00000000000E+00 -0.46405281132E+00  0.46405981747E+00  0.25500000000E-02 0. -1.
         31    1    1    2    0    0 -0.90186195062E-01  0.73468624469E-01  0.61272035480E+02  0.61723049091E+02  0.74470750000E+01 0.  1.
        -31    1    1    2    0    0  0.90186195062E-01 -0.73468624469E-01  0.57896609041E+02  0.58373708086E+02  0.74470750000E+01 0. -1.
<mgrwt>
<rscale>  0 0.14901854E+02</rscale>
<asrwt>0</asrwt>
<pdfrwt beam="2">  1        2 0.98563583E+00 0.14901854E+02</pdfrwt>
<pdfrwt beam="1">  1       -2 0.99304402E+00 0.14901854E+02</pdfrwt>
<totfact>-0.27441134E-13</totfact>
</mgrwt>
</event>
<event>
 4    1  0.5245809E-019  0.1493060E+02  0.7818608E-02  0.1870194E+00
         -2   -1    0    0    0  501 -0.00000000000E+00  0.00000000000E+00  0.11880059272E+03  0.11880059275E+03  0.25500000000E-02 0.  1.
          2   -1    0    0  501    0  0.00000000000E+00 -0.00000000000E+00 -0.46910801878E+00  0.46911494943E+00  0.25500000000E-02 0. -1.
         31    1    1    2    0    0 -0.46373960781E-01 -0.33161674104E+00  0.62357847569E+02  0.62801848697E+02  0.74470750000E+01 0.  1.
        -31    1    1    2    0    0  0.46373960781E-01  0.33161674104E+00  0.55973637130E+02  0.56467858998E+02  0.74470750000E+01 0. -1.
<mgrwt>
<rscale>  0 0.14930603E+02</rscale>
<asrwt>0</asrwt>
<pdfrwt beam="2">  1        2 0.99630360E+00 0.14930603E+02</pdfrwt>
<pdfrwt beam="1">  1       -2 0.98620539E+00 0.14930603E+02</pdfrwt>
<totfact> 0.28066784E-13</totfact>
</mgrwt>
</event>
<event>
 4    1 -0.5245809E-019  0.1500423E+02  0.7818608E-02  0.1867939E+00
          2   -1    0    0  501    0  0.00000000000E+00  0.00000000000E+00  0.12016955835E+03  0.12016955837E+03  0.25500000000E-02 0. -1.
         -2   -1    0    0    0  501 -0.00000000000E+00 -0.00000000000E+00 -0.46834917673E+00  0.46835611861E+00  0.25500000000E-02 0.  1.
         31    1    1    2    0    0 -0.33084846843E+00  0.77007104949E+00  0.57061458317E+02  0.57551467587E+02  0.74470750000E+01 0.  1.
        -31    1    1    2    0    0  0.33084846843E+00 -0.77007104949E+00  0.62639750852E+02  0.63086446904E+02  0.74470750000E+01 0. -1.
<mgrwt>
<rscale>  0 0.15004231E+02</rscale>
<asrwt>0</asrwt>
<pdfrwt beam="1">  1        2 0.99751868E+00 0.15004231E+02</pdfrwt>
<pdfrwt beam="2">  1       -2 0.99474280E+00 0.15004231E+02</pdfrwt>
<totfact>-0.77265468E-14</totfact>
</mgrwt>
</event>
<event>
 4    1 -0.5245809E-019  0.1490786E+02  0.7818608E-02  0.1870893E+00
          2   -1    0    0  501    0  0.00000000000E+00  0.00000000000E+00  0.11847062174E+03  0.11847062176E+03  0.25500000000E-02 0. -1.
         -2   -1    0    0    0  501 -0.00000000000E+00 -0.00000000000E+00 -0.46898258872E+00  0.46898952122E+00  0.25500000000E-02 0.  1.
         31    1    1    2    0    0 -0.16715550119E+00 -0.23775323538E+00  0.57939998875E+02  0.58417350704E+02  0.74470750000E+01 0.  1.
        -31    1    1    2    0    0  0.16715550119E+00  0.23775323538E+00  0.60061640272E+02  0.60522260580E+02  0.74470750000E+01 0. -1.
<mgrwt>
<rscale>  0 0.14907860E+02</rscale>
<asrwt>0</asrwt>
<pdfrwt beam="1">  1        2 0.98347592E+00 0.14907860E+02</pdfrwt>
<pdfrwt beam="2">  1       -2 0.99602735E+00 0.14907860E+02</pdfrwt>
<totfact>-0.41812387E-13</totfact>
</mgrwt>
</event>
<event>
 4    1 -0.5245809E-019  0.1492135E+02  0.7818608E-02  0.1870478E+00
         -2   -1    0    0    0  501 -0.00000000000E+00  0.00000000000E+00  0.11988286181E+03  0.11988286183E+03  0.25500000000E-02 0.  1.
          2   -1    0    0  501    0  0.00000000000E+00 -0.00000000000E+00 -0.46429721467E+00  0.46430421714E+00  0.25500000000E-02 0. -1.
         31    1    1    2    0    0  0.41569896116E+00  0.15893677168E+00  0.60262763655E+02  0.60722793710E+02  0.74470750000E+01 0.  1.
        -31    1    1    2    0    0 -0.41569896116E+00 -0.15893677168E+00  0.59155800935E+02  0.59624372339E+02  0.74470750000E+01 0. -1.
<mgrwt>
<rscale>  0 0.14921354E+02</rscale>
<asrwt>0</asrwt>
<pdfrwt beam="2">  1        2 0.98616088E+00 0.14921354E+02</pdfrwt>
<pdfrwt beam="1">  1       -2 0.99511457E+00 0.14921354E+02</pdfrwt>
<totfact>-0.28827384E-13</totfact>
</mgrwt>
</event>
<event>
 4    1 -0.5245809E-019  0.1495173E+02  0.7818608E-02  0.1869545E+00
          2   -1    0    0  501    0  0.00000000000E+00  0.00000000000E+00  0.11895615317E+03  0.11895615319E+03  0.25500000000E-02 0. -1.
         -2   -1    0    0    0  501 -0.00000000000E+00 -0.00000000000E+00 -0.46982159708E+00  0.46982851721E+00  0.25500000000E-02 0.  1.
         31    1    1    2    0    0 -0.34087526095E+00 -0.55701843465E+00  0.59694521617E+02  0.60160795395E+02  0.74470750000E+01 0.  1.
        -31    1    1    2    0    0  0.34087526095E+00  0.55701843465E+00  0.58791809952E+02  0.59265186316E+02  0.74470750000E+01 0. -1.
<mgrwt>
<rscale>  0 0.14951734E+02</rscale>
<asrwt>0</asrwt>
<pdfrwt beam="1">  1        2 0.98749757E+00 0.14951734E+02</pdfrwt>
<pdfrwt beam="2">  1       -2 0.99781826E+00 0.14951734E+02</pdfrwt>
<totfact>-0.15183219E-13</totfact>
</mgrwt>
</event>
<event>
 4    1 -0.5245809E-019  0.1493794E+02  0.7818608E-02  0.1869968E+00
         -2   -1    0    0    0  501 -0.00000000000E+00  0.00000000000E+00  0.11989782115E+03  0.11989782118E+03  0.25500000000E-02 0. -1.
          2   -1    0    0  501    0  0.00000000000E+00 -0.00000000000E+00 -0.46527184713E+00  0.46527883493E+00  0.25500000000E-02 0.  1.
         31    1    1    2    0    0  0.51315571211E+00 -0.23333091909E+00  0.58960207183E+02  0.59431327843E+02  0.74470750000E+01 0.  1.
        -31    1    1    2    0    0 -0.51315571211E+00  0.23333091909E+00  0.60472342120E+02  0.60931772168E+02  0.74470750000E+01 0. -1.
<mgrwt>
<rscale>  0 0.14937939E+02</rscale>
<asrwt>0</asrwt>
<pdfrwt beam="2">  1        2 0.98822343E+00 0.14937939E+02</pdfrwt>
<pdfrwt beam="1">  1       -2 0.99524632E+00 0.14937939E+02</pdfrwt>
<totfact>-0.21531200E-13</totfact>
</mgrwt>
</event>
<event>
 4    1  0.5245809E-019  0.1491694E+02  0.7818608E-02  0.1870614E+00
         -2   -1    0    0    0  501 -0.00000000000E+00  0.00000000000E+00  0.11871008390E+03  0.11871008392E+03  0.25500000000E-02 0. -1.
          2   -1    0    0  501    0  0.00000000000E+00 -0.00000000000E+00 -0.46860702410E+00  0.46861396217E+00  0.25500000000E-02 0.  1.
         31    1    1    2    0    0  0.31875738704E+00 -0.23376944476E+00  0.60052934801E+02  0.60514214518E+02  0.74470750000E+01 0. -1.
        -31    1    1    2    0    0 -0.31875738704E+00  0.23376944476E+00  0.58188542070E+02  0.58664483367E+02  0.74470750000E+01 0. -1.
<mgrwt>
<rscale>  0 0.14916943E+02</rscale>
<asrwt>0</asrwt>
<pdfrwt beam="2">  1        2 0.99524079E+00 0.14916943E+02</pdfrwt>
<pdfrwt beam="1">  1       -2 0.98545286E+00 0.14916943E+02</pdfrwt>
<totfact> 0.41375859E-13</totfact>
</mgrwt>
</event>
<event>
 4    1  0.5245809E-019  0.1494155E+02  0.7818608E-02  0.1869857E+00
          2   -1    0    0  501    0  0.00000000000E+00  0.00000000000E+00  0.12005139741E+03  0.12005139743E+03  0.25500000000E-02 0. -1.
         -2   -1    0    0    0  501 -0.00000000000E+00 -0.00000000000E+00 -0.46490164647E+00  0.46490863984E+00  0.25500000000E-02 0.  1.
         31    1    1    2    0    0 -0.22903024227E+00 -0.53585368269E+00  0.58839044890E+02  0.59311311936E+02  0.74470750000E+01 0.  1.
        -31    1    1    2    0    0  0.22903024227E+00  0.53585368269E+00  0.60747450869E+02  0.61204994136E+02  0.74470750000E+01 0. -1.
<mgrwt>
<rscale>  0 0.14941555E+02</rscale>
<asrwt>0</asrwt>
<pdfrwt beam="1">  1        2 0.99651314E+00 0.14941555E+02</pdfrwt>
<pdfrwt beam="2">  1       -2 0.98744506E+00 0.14941555E+02</pdfrwt>
<totfact> 0.16426686E-13</totfact>
</mgrwt>
</event>
<event>
 4    1 -0.5245809E-019  0.1492730E+02  0.7818608E-02  0.1870295E+00
         -2   -1    0    0    0  501 -0.00000000000E+00  0.00000000000E+00  0.11999179164E+03  0.11999179166E+03  0.25500000000E-02 0. -1.
          2   -1    0    0  501    0  0.00000000000E+00 -0.00000000000E+00 -0.46424569412E+00  0.46425269737E+00  0.25500000000E-02 0.  1.
         31    1    1    2    0    0  0.44473235452E+00  0.21754914325E-01  0.61548391024E+02  0.61998884053E+02  0.74470750000E+01 0.  1.
        -31    1    1    2    0    0 -0.44473235452E+00 -0.21754914325E-01  0.57979154919E+02  0.58457160309E+02  0.74470750000E+01 0.  1.
<mgrwt>
<rscale>  0 0.14927303E+02</rscale>
<asrwt>0</asrwt>
<pdfrwt beam="2">  1        2 0.98605533E+00 0.14927303E+02</pdfrwt>
<pdfrwt beam="1">  1       -2 0.99601485E+00 0.14927303E+02</pdfrwt>
<totfact>-0.27531230E-13</totfact>
</mgrwt>
</event>
<event>
 4    1  0.5245809E-019  0.1491198E+02  0.7818608E-02  0.1870766E+00
          2   -1    0    0  501    0  0.00000000000E+00  0.00000000000E+00  0.11965933283E+03  0.11965933285E+03  0.25500000000E-02 0. -1.
         -2   -1    0    0    0  501 -0.00000000000E+00 -0.00000000000E+00 -0.46458024665E+00  0.46458724485E+00  0.25500000000E-02 0.  1.
         31    1    1    2    0    0  0.35167316051E+00  0.90655075161E-01  0.59347018192E+02  0.59813538490E+02  0.74470750000E+01 0.  1.
        -31    1    1    2    0    0 -0.35167316051E+00 -0.90655075161E-01  0.59847734389E+02  0.60310381609E+02  0.74470750000E+01 0.  1.
<mgrwt>
<rscale>  0 0.14911980E+02</rscale>
<asrwt>0</asrwt>
<pdfrwt beam="1">  1        2 0.99326862E+00 0.14911980E+02</pdfrwt>
<pdfrwt beam="2">  1       -2 0.98675259E+00 0.14911980E+02</pdfrwt>
<totfact> 0.31453923E-13</totfact>
</mgrwt>
</event>
<event>
 4    1 -0.5245809E-019  0.1502902E+02  0.7818608E-02  0.1867184E+00
         -2   -1    0    0    0  501 -0.00000000000E+00  0.00000000000E+00  0.12024030851E+03  0.12024030853E+03  0.25500000000E-02 0. -1.
          2   -1    0    0  501    0  0.00000000000E+00 -0.00000000000E+00 -0.46962162675E+00  0.46962854983E+00  0.25500000000E-02 0.  1.
         31    1    1    2    0    0  0.49046277914E+00 -0.46402895803E+00  0.53912228874E+02  0.54428331086E+02  0.74470750000E+01 0.  1.
        -31    1    1    2    0    0 -0.49046277914E+00  0.46402895803E+00  0.65858458005E+02  0.66281605997E+02  0.74470750000E+01 0. -1.
<mgrwt>
<rscale>  0 0.15029021E+02</rscale>
<asrwt>0</asrwt>
<pdfrwt beam="2">  1        2 0.99743713E+00 0.15029021E+02</pdfrwt>
<pdfrwt beam="1">  1       -2 0.99811422E+00 0.15029021E+02</pdfrwt>
<totfact>-0.44722484E-14</totfact>
</mgrwt>
</event>
<event>
 4    1  0.5245809E-019  0.1492360E+02  0.7818608E-02  0.1870409E+00
          2   -1    0    0  501    0  0.00000000000E+00  0.00000000000E+00  0.12039807654E+03  0.12039807657E+03  0.25500000000E-02 0.  1.
         -2   -1    0    0    0  501 -0.00000000000E+00 -0.00000000000E+00 -0.46244974573E+00  0.46245677617E+00  0.25500000000E-02 0. -1.
         31    1    1    2    0    0  0.33455537163E+00  0.30748627236E+00  0.59041408051E+02  0.59510950806E+02  0.74470750000E+01 0.  1.
        -31    1    1    2    0    0 -0.33455537163E+00 -0.30748627236E+00  0.60894218741E+02  0.61349582535E+02  0.74470750000E+01 0.  1.
<mgrwt>
<rscale>  0 0.14923604E+02</rscale>
<asrwt>0</asrwt>
<pdfrwt beam="1">  1        2 0.99935945E+00 0.14923604E+02</pdfrwt>
<pdfrwt beam="2">  1       -2 0.98226817E+00 0.14923604E+02</pdfrwt>
<totfact> 0.19014778E-13</totfact>
</mgrwt>
</event>
<event>
 4    1  0.5245809E-019  0.1492521E+02  0.7818608E-02  0.1870359E+00
         -2   -1    0    0    0  501 -0.00000000000E+00  0.00000000000E+00  0.11882373060E+03  0.11882373063E+03  0.25500000000E-02 0.  1.
          2   -1    0    0  501    0  0.00000000000E+00 -0.00000000000E+00 -0.46867775901E+00  0.46868469602E+00  0.25500000000E-02 0. -1.
         31    1    1    2    0    0 -0.42328483024E+00 -0.10951880541E+00  0.60783333373E+02  0.61239396685E+02  0.74470750000E+01 0.  1.
        -31    1    1    2    0    0  0.42328483024E+00  0.10951880541E+00  0.57571719472E+02  0.58053018642E+02  0.74470750000E+01 0. -1.
<mgrwt>
<rscale>  0 0.14925208E+02</rscale>
<asrwt>0</asrwt>
<pdfrwt beam="2">  1        2 0.99539417E+00 0.14925208E+02</pdfrwt>
<pdfrwt beam="1">  1       -2 0.98639315E+00 0.14925208E+02</pdfrwt>
<totfact> 0.29785415E-13</totfact>
</mgrwt>
</event>
<event>
 4    1 -0.5245809E-019  0.1490587E+02  0.7818608E-02  0.1870954E+00
          2   -1    0    0  501    0  0.00000000000E+00  0.00000000000E+00  0.11840711839E+03  0.11840711841E+03  0.25500000000E-02 0. -1.
         -2   -1    0    0    0  501 -0.00000000000E+00 -0.00000000000E+00 -0.46910898077E+00  0.46911591141E+00  0.25500000000E-02 0.  1.
         31    1    1    2    0    0  0.15009765077E+00 -0.33737164821E-01  0.56956763798E+02  0.57441757771E+02  0.74470750000E+01 0.  1.
        -31    1    1    2    0    0 -0.15009765077E+00  0.33737164821E-01  0.60981245607E+02  0.61434476553E+02  0.74470750000E+01 0. -1.
<mgrwt>
<rscale>  0 0.14905872E+02</rscale>
<asrwt>0</asrwt>
<pdfrwt beam="1">  1        2 0.98295188E+00 0.14905872E+02</pdfrwt>
<pdfrwt beam="2">  1       -2 0.99629261E+00 0.14905872E+02</pdfrwt>
<totfact>-0.44218460E-13</totfact>
</mgrwt>
</event>
<event>
 4    1 -0.5245809E-019  0.1490546E+02  0.7818608E-02  0.1870967E+00
         -2   -1    0    0    0  501 -0.00000000000E+00  0.00000000000E+00  0.11938151033E+03  0.11938151035E+03  0.25500000000E-02 0. -1.
          2   -1    0    0  501    0  0.00000000000E+00 -0.00000000000E+00 -0.46525413625E+00  0.46526112431E+00  0.25500000000E-02 0.  1.
         31    1    1    2    0    0  0.19113986770E+00 -0.20696436848E+00  0.58897188581E+02  0.59366801476E+02  0.74470750000E+01 0.  1.
        -31    1    1    2    0    0 -0.19113986770E+00  0.20696436848E+00  0.60019067609E+02  0.60479970002E+02  0.74470750000E+01 0.  1.
<mgrwt>
<rscale>  0 0.14905457E+02</rscale>
<asrwt>0</asrwt>
<pdfrwt beam="2">  1        2 0.98816944E+00 0.14905457E+02</pdfrwt>
<pdfrwt beam="1">  1       -2 0.99097696E+00 0.14905457E+02</pdfrwt>
<totfact>-0.74754503E-14</totfact>
</mgrwt>
</event>
<event>
 4    1 -0.5245809E-019  0.1502083E+02  0.7818608E-02  0.1867433E+00
         -2   -1    0    0    0  501 -0.00000000000E+00  0.00000000000E+00  0.12016700939E+03  0.12016700942E+03  0.25500000000E-02 0. -1.
          2   -1    0    0  501    0  0.00000000000E+00 -0.00000000000E+00 -0.46939620318E+00  0.46940312958E+00  0.25500000000E-02 0.  1.
         31    1    1    2    0    0  0.75444000745E+00  0.43993526993E-01  0.54922053163E+02  0.55429793116E+02  0.74470750000E+01 0.  1.
        -31    1    1    2    0    0 -0.75444000745E+00 -0.43993526993E-01  0.64775560023E+02  0.65206619430E+02  0.74470750000E+01 0. -1.
<mgrwt>
<rscale>  0 0.15020833E+02</rscale>
<asrwt>0</asrwt>
<pdfrwt beam="2">  1        2 0.99695785E+00 0.15020833E+02</pdfrwt>
<pdfrwt beam="1">  1       -2 0.99750626E+00 0.15020833E+02</pdfrwt>
<totfact>-0.62648378E-14</totfact>
</mgrwt>
</event>
<event>
 4    1 -0.5245809E-019  0.1502490E+02  0.7818608E-02  0.1867310E+00
         -2   -1    0    0    0  501 -0.00000000000E+00  0.00000000000E+00  0.12018848143E+03  0.12018848145E+03  0.25500000000E-02 0.  1.
          2   -1    0    0  501    0  0.00000000000E+00 -0.00000000000E+00 -0.46956642828E+00  0.46957335217E+00  0.25500000000E-02 0. -1.
         31    1    1    2    0    0  0.76032117748E+00 -0.47200309474E+00  0.63238912837E+02  0.63682178811E+02  0.74470750000E+01 0.  1.
        -31    1    1    2    0    0 -0.76032117748E+00  0.47200309474E+00  0.56480002161E+02  0.56975875994E+02  0.74470750000E+01 0. -1.
<mgrwt>
<rscale>  0 0.15024899E+02</rscale>
<asrwt>0</asrwt>
<pdfrwt beam="2">  1        2 0.99731868E+00 0.15024899E+02</pdfrwt>
<pdfrwt beam="1">  1       -2 0.99768522E+00 0.15024899E+02</pdfrwt>
<totfact>-0.54320744E-14</totfact>
</mgrwt>
</event>
<event>
 4    1 -0.5245809E-019  0.1493870E+02  0.7818608E-02  0.1869945E+00
         -2   -1    0    0    0  501 -0.00000000000E+00  0.00000000000E+00  0.12011163953E+03  0.12011163956E+03  0.25500000000E-02 0. -1.
          2   -1    0    0  501    0  0.00000000000E+00 -0.00000000000E+00 -0.46449075575E+00  0.46449775530E+00  0.25500000000E-02 0.  1.
         31    1    1    2    0    0 -0.12622428734E+00  0.55123193371E+00  0.58922806259E+02  0.59394240568E+02  0.74470750000E+01 0.  1.
        -31    1    1    2    0    0  0.12622428734E+00 -0.55123193371E+00  0.60724342515E+02  0.61181896744E+02  0.74470750000E+01 0. -1.
<mgrwt>
<rscale>  0 0.14938697E+02</rscale>
<asrwt>0</asrwt>
<pdfrwt beam="2">  1        2 0.98657762E+00 0.14938697E+02</pdfrwt>
<pdfrwt beam="1">  1       -2 0.99700787E+00 0.14938697E+02</pdfrwt>
<totfact>-0.21720523E-13</totfact>
</mgrwt>
</event>
<event>
 4    1  0.5245809E-019  0.1492336E+02  0.7818608E-02  0.1870416E+00
         -2   -1    0    0    0  501 -0.00000000000E+00  0.00000000000E+00  0.11841040167E+03  0.11841040170E+03  0.25500000000E-02 0.  1.
          2   -1    0    0  501    0  0.00000000000E+00 -0.00000000000E+00 -0.47019751615E+00  0.47020443075E+00  0.25500000000E-02 0. -1.
         31    1    1    2    0    0  0.38773508383E+00  0.12941858929E+00  0.60763365366E+02  0.61219380790E+02  0.74470750000E+01 0.  1.
        -31    1    1    2    0    0 -0.38773508383E+00 -0.12941858929E+00  0.57176838790E+02  0.57661225341E+02  0.74470750000E+01 0. -1.
<mgrwt>
<rscale>  0 0.14923363E+02</rscale>
<asrwt>0</asrwt>
<pdfrwt beam="2">  1        2 0.99859537E+00 0.14923363E+02</pdfrwt>
<pdfrwt beam="1">  1       -2 0.98298803E+00 0.14923363E+02</pdfrwt>
<totfact> 0.32899351E-13</totfact>
</mgrwt>
</event>
<event>
 4    1 -0.5245809E-019  0.1495308E+02  0.7818608E-02  0.1869504E+00
         -2   -1    0    0    0  501 -0.00000000000E+00  0.00000000000E+00  0.11970895385E+03  0.11970895388E+03  0.25500000000E-02 0.  1.
          2   -1    0    0  501    0  0.00000000000E+00 -0.00000000000E+00 -0.46695119816E+00  0.46695816082E+00  0.25500000000E-02 0. -1.
         31    1    1    2    0    0  0.31685786262E+00 -0.55010381968E+00  0.61161068373E+02  0.61616054918E+02  0.74470750000E+01 0.  1.
        -31    1    1    2    0    0 -0.31685786262E+00  0.55010381968E+00  0.58080934283E+02  0.58559857123E+02  0.74470750000E+01 0.  1.
<mgrwt>
<rscale>  0 0.14953081E+02</rscale>
<asrwt>0</asrwt>
<pdfrwt beam="2">  1        2 0.99177036E+00 0.14953081E+02</pdfrwt>
<pdfrwt beam="1">  1       -2 0.99369852E+00 0.14953081E+02</pdfrwt>
<totfact>-0.14699641E-13</totfact>
</mgrwt>
</event>
<event>
 4    1 -0.5245809E-019  0.1497983E+02  0.7818608E-02  0.1868685E+00
          2   -1    0    0  501    0  0.00000000000E+00  0.00000000000E+00  0.11952639579E+03  0.11952639582E+03  0.25500000000E-02 0.  1.
         -2   -1    0    0    0  501 -0.00000000000E+00 -0.00000000000E+00 -0.46933927100E+00  0.46934619824E+00  0.25500000000E-02 0. -1.
         31    1    1    2    0    0 -0.58135520682E+00 -0.51139494145E+00  0.57917962322E+02  0.58399903975E+02  0.74470750000E+01 0.  1.
        -31    1    1    2    0    0  0.58135520682E+00  0.51139494145E+00  0.61139094201E+02  0.61595838045E+02  0.74470750000E+01 0. -1.
<mgrwt>
<rscale>  0 0.14979833E+02</rscale>
<asrwt>0</asrwt>
<pdfrwt beam="1">  1        2 0.99220875E+00 0.14979833E+02</pdfrwt>
<pdfrwt beam="2">  1       -2 0.99681662E+00 0.14979833E+02</pdfrwt>
<totfact>-0.12399195E-13</totfact>
</mgrwt>
</event>
<event>
 4    1 -0.5245809E-019  0.1499638E+02  0.7818608E-02  0.1868179E+00
          2   -1    0    0  501    0  0.00000000000E+00  0.00000000000E+00  0.11978319239E+03  0.11978319242E+03  0.25500000000E-02 0.  1.
         -2   -1    0    0    0  501 -0.00000000000E+00 -0.00000000000E+00 -0.46936806264E+00  0.46937498946E+00  0.25500000000E-02 0. -1.
         31    1    1    2    0    0  0.63589008893E-01 -0.61516303015E+00  0.64609295600E+02  0.65040006712E+02  0.74470750000E+01 0.  1.
        -31    1    1    2    0    0 -0.63589008893E-01  0.61516303015E+00  0.54704528729E+02  0.55212560696E+02  0.74470750000E+01 0. -1.
<mgrwt>
<rscale>  0 0.14996376E+02</rscale>
<asrwt>0</asrwt>
<pdfrwt beam="1">  1        2 0.99433236E+00 0.14996376E+02</pdfrwt>
<pdfrwt beam="2">  1       -2 0.99688589E+00 0.14996376E+02</pdfrwt>
<totfact>-0.10423229E-13</totfact>
</mgrwt>
</event>
<event>
 4    1 -0.5245809E-019  0.1493625E+02  0.7818608E-02  0.1870020E+00
          2   -1    0    0  501    0  0.00000000000E+00  0.00000000000E+00  0.11883586996E+03  0.11883586998E+03  0.25500000000E-02 0.  1.
         -2   -1    0    0    0  501 -0.00000000000E+00 -0.00000000000E+00 -0.46932336681E+00  0.46933029429E+00  0.25500000000E-02 0. -1.
         31    1    1    2    0    0  0.35465407995E-01  0.42103149344E+00  0.62122613310E+02  0.62568814404E+02  0.74470750000E+01 0.  1.
        -31    1    1    2    0    0 -0.35465407995E-01 -0.42103149344E+00  0.56243933278E+02  0.56736385873E+02  0.74470750000E+01 0.  1.
<mgrwt>
<rscale>  0 0.14936247E+02</rscale>
<asrwt>0</asrwt>
<pdfrwt beam="1">  1        2 0.98649887E+00 0.14936247E+02</pdfrwt>
<pdfrwt beam="2">  1       -2 0.99676032E+00 0.14936247E+02</pdfrwt>
<totfact>-0.23098268E-13</totfact>
</mgrwt>
</event>
<event>
 4    1 -0.5245809E-019  0.1496192E+02  0.7818608E-02  0.1869233E+00
          2   -1    0    0  501    0  0.00000000000E+00  0.00000000000E+00  0.11968804585E+03  0.11968804587E+03  0.25500000000E-02 0.  1.
         -2   -1    0    0    0  501 -0.00000000000E+00 -0.00000000000E+00 -0.46758477974E+00  0.46759173297E+00  0.25500000000E-02 0. -1.
         31    1    1    2    0    0 -0.44406541496E+00  0.47854413843E+00  0.61876035073E+02  0.62325988488E+02  0.74470750000E+01 0.  1.
        -31    1    1    2    0    0  0.44406541496E+00 -0.47854413843E+00  0.57344425994E+02  0.57829649119E+02  0.74470750000E+01 0.  1.
<mgrwt>
<rscale>  0 0.14961915E+02</rscale>
<asrwt>0</asrwt>
<pdfrwt beam="1">  1        2 0.99353088E+00 0.14961915E+02</pdfrwt>
<pdfrwt beam="2">  1       -2 0.99311011E+00 0.14961915E+02</pdfrwt>
<totfact>-0.11981076E-13</totfact>
</mgrwt>
</event>
<event>
 4    1 -0.5245809E-019  0.1492220E+02  0.7818608E-02  0.1870452E+00
          2   -1    0    0  501    0  0.00000000000E+00  0.00000000000E+00  0.11828537904E+03  0.11828537907E+03  0.25500000000E-02 0.  1.
         -2   -1    0    0    0  501 -0.00000000000E+00 -0.00000000000E+00 -0.47062143997E+00  0.47062834834E+00  0.25500000000E-02 0. -1.
         31    1    1    2    0    0  0.23243343823E+00 -0.22605651924E+00  0.61473797148E+02  0.61924080846E+02  0.74470750000E+01 0.  1.
        -31    1    1    2    0    0 -0.23243343823E+00  0.22605651924E+00  0.56340960455E+02  0.56831926572E+02  0.74470750000E+01 0. -1.
<mgrwt>
<rscale>  0 0.14922205E+02</rscale>
<asrwt>0</asrwt>
<pdfrwt beam="1">  1        2 0.98195776E+00 0.14922205E+02</pdfrwt>
<pdfrwt beam="2">  1       -2 0.99948794E+00 0.14922205E+02</pdfrwt>
<totfact>-0.99923213E-14</totfact>
</mgrwt>
</event>
<event>
 4    1 -0.5245809E-019  0.1490468E+02  0.7818608E-02  0.1870991E+00
         -2   -1    0    0    0  501 -0.00000000000E+00  0.00000000000E+00  0.11992169425E+03  0.11992169428E+03  0.25500000000E-02 0. -1.
          2   -1    0    0  501    0  0.00000000000E+00 -0.00000000000E+00 -0.46311020237E+00  0.46311722279E+00  0.25500000000E-02 0.  1.
         31    1    1    2    0    0  0.17635589261E+00 -0.20036930803E+00  0.60415073918E+02  0.60872911314E+02  0.74470750000E+01 0. -1.
        -31    1    1    2    0    0 -0.17635589261E+00  0.20036930803E+00  0.59043510128E+02  0.59511900185E+02  0.74470750000E+01 0.  1.
<mgrwt>
<rscale>  0 0.14904682E+02</rscale>
<asrwt>0</asrwt>
<pdfrwt beam="2">  1        2 0.98365065E+00 0.14904682E+02</pdfrwt>
<pdfrwt beam="1">  1       -2 0.99542585E+00 0.14904682E+02</pdfrwt>
<totfact>-0.42678174E-13</totfact>
</mgrwt>
</event>
<event>
 4    1 -0.5245809E-019  0.1498404E+02  0.7818608E-02  0.1868556E+00
         -2   -1    0    0    0  501 -0.00000000000E+00  0.00000000000E+00  0.12029509733E+03  0.12029509736E+03  0.25500000000E-02 0. -1.
          2   -1    0    0  501    0  0.00000000000E+00 -0.00000000000E+00 -0.46660222962E+00  0.46660919750E+00  0.25500000000E-02 0.  1.
         31    1    1    2    0    0  0.31314191808E+00  0.22241593590E+00  0.65747851866E+02  0.66169377190E+02  0.74470750000E+01 0. -1.
        -31    1    1    2    0    0 -0.31314191808E+00 -0.22241593590E+00  0.54080643237E+02  0.54592329367E+02  0.74470750000E+01 0.  1.
<mgrwt>
<rscale>  0 0.14984043E+02</rscale>
<asrwt>0</asrwt>
<pdfrwt beam="2">  1        2 0.99105081E+00 0.14984043E+02</pdfrwt>
<pdfrwt beam="1">  1       -2 0.99854228E+00 0.14984043E+02</pdfrwt>
<totfact>-0.74205945E-14</totfact>
</mgrwt>
</event>
<event>
 4    1 -0.5245809E-019  0.1490071E+02  0.7818608E-02  0.1871113E+00
         -2   -1    0    0    0  501 -0.00000000000E+00  0.00000000000E+00  0.12014976336E+03  0.12014976339E+03  0.25500000000E-02 0.  1.
          2   -1    0    0  501    0  0.00000000000E+00 -0.00000000000E+00 -0.46198502320E+00  0.46199206071E+00  0.25500000000E-02 0. -1.
         31    1    1    2    0    0  0.13728987822E+00 -0.95855322617E-01  0.58674977167E+02  0.59145920471E+02  0.74470750000E+01 0. -1.
        -31    1    1    2    0    0 -0.13728987822E+00  0.95855322617E-01  0.61012801167E+02  0.61465834975E+02  0.74470750000E+01 0.  1.
<mgrwt>
<rscale>  0 0.14900714E+02</rscale>
<asrwt>0</asrwt>
<pdfrwt beam="2">  1        2 0.98127711E+00 0.14900714E+02</pdfrwt>
<pdfrwt beam="1">  1       -2 0.99730238E+00 0.14900714E+02</pdfrwt>
<totfact>-0.48274433E-13</totfact>
</mgrwt>
</event>
<event>
 4    1 -0.5245809E-019  0.1501466E+02  0.7818608E-02  0.1867622E+00
         -2   -1    0    0    0  501 -0.00000000000E+00  0.00000000000E+00  0.11989344376E+03  0.11989344379E+03  0.25500000000E-02 0.  1.
          2   -1    0    0  501    0  0.00000000000E+00 -0.00000000000E+00 -0.47008054487E+00  0.47008746119E+00  0.25500000000E-02 0. -1.
         31    1    1    2    0    0 -0.81901566929E+00  0.47951068632E+00  0.59561704895E+02  0.60032960391E+02  0.74470750000E+01 0.  1.
        -31    1    1    2    0    0  0.81901566929E+00 -0.47951068632E+00  0.59861658320E+02  0.60330570858E+02  0.74470750000E+01 0.  1.
<mgrwt>
<rscale>  0 0.15014659E+02</rscale>
<asrwt>0</asrwt>
<pdfrwt beam="2">  1        2 0.99839677E+00 0.15014659E+02</pdfrwt>
<pdfrwt beam="1">  1       -2 0.99524989E+00 0.15014659E+02</pdfrwt>
<totfact>-0.54425457E-14</totfact>
</mgrwt>
</event>
<event>
 4    1 -0.5245809E-019  0.1499401E+02  0.7818608E-02  0.1868251E+00
          2   -1    0    0  501    0  0.00000000000E+00  0.00000000000E+00  0.12028809237E+03  0.12028809240E+03  0.25500000000E-02 0.  1.
         -2   -1    0    0    0  501 -0.00000000000E+00 -0.00000000000E+00 -0.46725048176E+00  0.46725743997E+00  0.25500000000E-02 0. -1.
         31    1    1    2    0    0 -0.39782118152E+00  0.91889491157E-01  0.53779861926E+02  0.54294559398E+02  0.74470750000E+01 0. -1.
        -31    1    1    2    0    0  0.39782118152E+00 -0.91889491157E-01  0.66040979966E+02  0.66460790443E+02  0.74470750000E+01 0.  1.
<mgrwt>
<rscale>  0 0.14994011E+02</rscale>
<asrwt>0</asrwt>
<pdfrwt beam="1">  1        2 0.99848972E+00 0.14994011E+02</pdfrwt>
<pdfrwt beam="2">  1       -2 0.99242211E+00 0.14994011E+02</pdfrwt>
<totfact>-0.39682584E-14</totfact>
</mgrwt>
</event>
<event>
 4    1  0.5245809E-019  0.1491391E+02  0.7818608E-02  0.1870707E+00
          2   -1    0    0  501    0  0.00000000000E+00  0.00000000000E+00  0.12008879399E+03  0.12008879402E+03  0.25500000000E-02 0.  1.
         -2   -1    0    0    0  501 -0.00000000000E+00 -0.00000000000E+00 -0.46303843231E+00  0.46304545381E+00  0.25500000000E-02 0. -1.
         31    1    1    2    0    0 -0.15148238199E+00  0.35131183212E+00  0.60049757283E+02  0.60510979522E+02  0.74470750000E+01 0.  1.
        -31    1    1    2    0    0  0.15148238199E+00 -0.35131183212E+00  0.59575998276E+02  0.60040859950E+02  0.74470750000E+01 0. -1.
<mgrwt>
<rscale>  0 0.14913906E+02</rscale>
<asrwt>0</asrwt>
<pdfrwt beam="1">  1        2 0.99680695E+00 0.14913906E+02</pdfrwt>
<pdfrwt beam="2">  1       -2 0.98350406E+00 0.14913906E+02</pdfrwt>
<totfact> 0.54682736E-13</totfact>
</mgrwt>
</event>
<event>
 4    1 -0.5245809E-019  0.1495016E+02  0.7818608E-02  0.1869593E+00
         -2   -1    0    0    0  501 -0.00000000000E+00  0.00000000000E+00  0.11971950154E+03  0.11971950156E+03  0.25500000000E-02 0.  1.
          2   -1    0    0  501    0  0.00000000000E+00 -0.00000000000E+00 -0.46672782379E+00  0.46673478979E+00  0.25500000000E-02 0. -1.
         31    1    1    2    0    0 -0.63541650279E+00  0.90444772610E-01  0.60248171185E+02  0.60710073230E+02  0.74470750000E+01 0.  1.
        -31    1    1    2    0    0  0.63541650279E+00 -0.90444772610E-01  0.59004602527E+02  0.59476163123E+02  0.74470750000E+01 0. -1.
<mgrwt>
<rscale>  0 0.14950163E+02</rscale>
<asrwt>0</asrwt>
<pdfrwt beam="2">  1        2 0.99129811E+00 0.14950163E+02</pdfrwt>
<pdfrwt beam="1">  1       -2 0.99378389E+00 0.14950163E+02</pdfrwt>
<totfact>-0.15361251E-13</totfact>
</mgrwt>
</event>
<event>
 4    1 -0.5245809E-019  0.1490231E+02  0.7818608E-02  0.1871064E+00
          2   -1    0    0  501    0  0.00000000000E+00  0.00000000000E+00  0.11821231462E+03  0.11821231464E+03  0.25500000000E-02 0. -1.
         -2   -1    0    0    0  501 -0.00000000000E+00 -0.00000000000E+00 -0.46965740856E+00  0.46966433111E+00  0.25500000000E-02 0.  1.
         31    1    1    2    0    0 -0.75667948282E-01 -0.16706665685E+00  0.57559350568E+02  0.58039395248E+02  0.74470750000E+01 0.  1.
        -31    1    1    2    0    0  0.75667948282E-01  0.16706665685E+00  0.60183306639E+02  0.60642583726E+02  0.74470750000E+01 0.  1.
<mgrwt>
<rscale>  0 0.14902309E+02</rscale>
<asrwt>0</asrwt>
<pdfrwt beam="1">  1        2 0.98134564E+00 0.14902309E+02</pdfrwt>
<pdfrwt beam="2">  1       -2 0.99744625E+00 0.14902309E+02</pdfrwt>
<totfact>-0.45893392E-13</totfact>
</mgrwt>
</event>
<event>
 4    1  0.5245809E-019  0.1491447E+02  0.7818608E-02  0.1870690E+00
          2   -1    0    0  501    0  0.00000000000E+00  0.00000000000E+00  0.12028648509E+03  0.12028648512E+03  0.25500000000E-02 0.  1.
         -2   -1    0    0    0  501 -0.00000000000E+00 -0.00000000000E+00 -0.46231250725E+00  0.46231953978E+00  0.25500000000E-02 0. -1.
         31    1    1    2    0    0 -0.17069198301E+00 -0.27166903753E+00  0.58128983045E+02  0.58604953167E+02  0.74470750000E+01 0.  1.
        -31    1    1    2    0    0  0.17069198301E+00  0.27166903753E+00  0.61695189540E+02  0.62143851492E+02  0.74470750000E+01 0.  1.
<mgrwt>
<rscale>  0 0.14914473E+02</rscale>
<asrwt>0</asrwt>
<pdfrwt beam="1">  1        2 0.99843560E+00 0.14914473E+02</pdfrwt>
<pdfrwt beam="2">  1       -2 0.98197430E+00 0.14914473E+02</pdfrwt>
<totfact> 0.44474395E-13</totfact>
</mgrwt>
</event>
<event>
 4    1 -0.5245809E-019  0.1489871E+02  0.7818608E-02  0.1871175E+00
         -2   -1    0    0    0  501 -0.00000000000E+00  0.00000000000E+00  0.11997503116E+03  0.11997503119E+03  0.25500000000E-02 0.  1.
          2   -1    0    0  501    0  0.00000000000E+00 -0.00000000000E+00 -0.46253340778E+00  0.46254043695E+00  0.25500000000E-02 0. -1.
         31    1    1    2    0    0  0.17223301567E+00  0.40542235919E-01  0.59340034126E+02  0.59805767983E+02  0.74470750000E+01 0.  1.
        -31    1    1    2    0    0 -0.17223301567E+00 -0.40542235919E-01  0.60172463627E+02  0.60631803642E+02  0.74470750000E+01 0.  1.
<mgrwt>
<rscale>  0 0.14898709E+02</rscale>
<asrwt>0</asrwt>
<pdfrwt beam="2">  1        2 0.98243193E+00 0.14898709E+02</pdfrwt>
<pdfrwt beam="1">  1       -2 0.99586211E+00 0.14898709E+02</pdfrwt>
<totfact>-0.50726142E-13</totfact>
</mgrwt>
</event>
<event>
 4    1  0.5245809E-019  0.1491851E+02  0.7818608E-02  0.1870565E+00
         -2   -1    0    0    0  501 -0.00000000000E+00  0.00000000000E+00  0.11858841824E+03  0.11858841827E+03  0.25500000000E-02 0. -1.
          2   -1    0    0  501    0  0.00000000000E+00 -0.00000000000E+00 -0.46918642286E+00  0.46919335236E+00  0.25500000000E-02 0.  1.
         31    1    1    2    0    0 -0.31257252304E+00  0.18102436319E+00  0.60863505528E+02  0.61318477661E+02  0.74470750000E+01 0.  1.
        -31    1    1    2    0    0  0.31257252304E+00 -0.18102436319E+00  0.57255726290E+02  0.57739133960E+02  0.74470750000E+01 0. -1.
<mgrwt>
<rscale>  0 0.14918511E+02</rscale>
<asrwt>0</asrwt>
<pdfrwt beam="2">  1        2 0.99646245E+00 0.14918511E+02</pdfrwt>
<pdfrwt beam="1">  1       -2 0.98445163E+00 0.14918511E+02</pdfrwt>
<totfact> 0.46233921E-13</totfact>
</mgrwt>
</event>
<event>
 4    1  0.5245809E-019  0.1492069E+02  0.7818608E-02  0.1870498E+00
          2   -1    0    0  501    0  0.00000000000E+00  0.00000000000E+00  0.12003086049E+03  0.12003086052E+03  0.25500000000E-02 0. -1.
         -2   -1    0    0    0  501 -0.00000000000E+00 -0.00000000000E+00 -0.46368321718E+00  0.46369022892E+00  0.25500000000E-02 0.  1.
         31    1    1    2    0    0 -0.40599153735E+00 -0.16927514225E+00  0.60313783759E+02  0.60773389905E+02  0.74470750000E+01 0. -1.
        -31    1    1    2    0    0  0.40599153735E+00  0.16927514225E+00  0.59253393517E+02  0.59721160844E+02  0.74470750000E+01 0.  1.
<mgrwt>
<rscale>  0 0.14920686E+02</rscale>
<asrwt>0</asrwt>
<pdfrwt beam="1">  1        2 0.99633325E+00 0.14920686E+02</pdfrwt>
<pdfrwt beam="2">  1       -2 0.98486648E+00 0.14920686E+02</pdfrwt>
<totfact> 0.42275048E-13</totfact>
</mgrwt>
</event>
<event>
 4    1  0.5245809E-019  0.1490624E+02  0.7818608E-02  0.1870943E+00
          2   -1    0    0  501    0  0.00000000000E+00  0.00000000000E+00  0.12002820079E+03  0.12002820082E+03  0.25500000000E-02 0. -1.
         -2   -1    0    0    0  501 -0.00000000000E+00 -0.00000000000E+00 -0.46279604699E+00  0.46280307217E+00  0.25500000000E-02 0.  1.
         31    1    1    2    0    0 -0.47345509808E-01 -0.15113135944E+00  0.61843432233E+02  0.62290401497E+02  0.74470750000E+01 0.  1.
        -31    1    1    2    0    0  0.47345509808E-01  0.15113135944E+00  0.57721972514E+02  0.58200602396E+02  0.74470750000E+01 0.  1.
<mgrwt>
<rscale>  0 0.14906241E+02</rscale>
<asrwt>0</asrwt>
<pdfrwt beam="1">  1        2 0.99630392E+00 0.14906241E+02</pdfrwt>
<pdfrwt beam="2">  1       -2 0.98298931E+00 0.14906241E+02</pdfrwt>
<totfact> 0.67376783E-13</totfact>
</mgrwt>
</event>
<event>
 4    1 -0.5245809E-019  0.1493705E+02  0.7818608E-02  0.1869996E+00
          2   -1    0    0  501    0  0.00000000000E+00  0.00000000000E+00  0.11898721403E+03  0.11898721406E+03  0.25500000000E-02 0. -1.
         -2   -1    0    0    0  501 -0.00000000000E+00 -0.00000000000E+00 -0.46877665001E+00  0.46878358556E+00  0.25500000000E-02 0.  1.
         31    1    1    2    0    0 -0.52563672060E+00  0.11873064772E+00  0.57885021488E+02  0.58364587120E+02  0.74470750000E+01 0. -1.
        -31    1    1    2    0    0  0.52563672060E+00 -0.11873064772E+00  0.60633415893E+02  0.61091410524E+02  0.74470750000E+01 0. -1.
<mgrwt>
<rscale>  0 0.14937047E+02</rscale>
<asrwt>0</asrwt>
<pdfrwt beam="1">  1        2 0.98774577E+00 0.14937047E+02</pdfrwt>
<pdfrwt beam="2">  1       -2 0.99560875E+00 0.14937047E+02</pdfrwt>
<totfact>-0.22420573E-13</totfact>
</mgrwt>
</event>
<event>
 4    1  0.5245809E-019  0.1492695E+02  0.7818608E-02  0.1870306E+00
          2   -1    0    0  501    0  0.00000000000E+00  0.00000000000E+00  0.12015015497E+03  0.12015015500E+03  0.25500000000E-02 0.  1.
         -2   -1    0    0    0  501 -0.00000000000E+00 -0.00000000000E+00 -0.46361175552E+00  0.46361876834E+00  0.25500000000E-02 0. -1.
         31    1    1    2    0    0 -0.10605200008E+00  0.10707945204E+00  0.56037732676E+02  0.56530603416E+02  0.74470750000E+01 0. -1.
        -31    1    1    2    0    0  0.10605200008E+00 -0.10707945204E+00  0.63648810541E+02  0.64083170352E+02  0.74470750000E+01 0.  1.
<mgrwt>
<rscale>  0 0.14926949E+02</rscale>
<asrwt>0</asrwt>
<pdfrwt beam="1">  1        2 0.99731907E+00 0.14926949E+02</pdfrwt>
<pdfrwt beam="2">  1       -2 0.98471904E+00 0.14926949E+02</pdfrwt>
<totfact> 0.35796387E-13</totfact>
</mgrwt>
</event>
<event>
 4    1 -0.5245809E-019  0.1500719E+02  0.7818608E-02  0.1867849E+00
          2   -1    0    0  501    0  0.00000000000E+00  0.00000000000E+00  0.12004801982E+03  0.12004801985E+03  0.25500000000E-02 0. -1.
         -2   -1    0    0    0  501 -0.00000000000E+00 -0.00000000000E+00 -0.46900811786E+00  0.46901504999E+00  0.25500000000E-02 0.  1.
         31    1    1    2    0    0  0.33166934115E+00 -0.16391008592E+00  0.66547253645E+02  0.66963667498E+02  0.74470750000E+01 0.  1.
        -31    1    1    2    0    0 -0.33166934115E+00  0.16391008592E+00  0.53031758057E+02  0.53553367399E+02  0.74470750000E+01 0.  1.
<mgrwt>
<rscale>  0 0.15007187E+02</rscale>
<asrwt>0</asrwt>
<pdfrwt beam="1">  1        2 0.99651917E+00 0.15007187E+02</pdfrwt>
<pdfrwt beam="2">  1       -2 0.99613297E+00 0.15007187E+02</pdfrwt>
<totfact>-0.89689895E-14</totfact>
</mgrwt>
</event>
<event>
 4    1 -0.5245809E-019  0.1493434E+02  0.7818608E-02  0.1870079E+00
          2   -1    0    0  501    0  0.00000000000E+00  0.00000000000E+00  0.11920296430E+03  0.11920296433E+03  0.25500000000E-02 0.  1.
         -2   -1    0    0    0  501 -0.00000000000E+00 -0.00000000000E+00 -0.46775883539E+00  0.46776578603E+00  0.25500000000E-02 0. -1.
         31    1    1    2    0    0 -0.50501457695E+00 -0.20863835845E+00  0.59640700790E+02  0.60106328174E+02  0.74470750000E+01 0.  1.
        -31    1    1    2    0    0  0.50501457695E+00  0.20863835845E+00  0.59094504673E+02  0.59564401939E+02  0.74470750000E+01 0.  1.
<mgrwt>
<rscale>  0 0.14934344E+02</rscale>
<asrwt>0</asrwt>
<pdfrwt beam="1">  1        2 0.98952133E+00 0.14934344E+02</pdfrwt>
<pdfrwt beam="2">  1       -2 0.99346260E+00 0.14934344E+02</pdfrwt>
<totfact>-0.17426649E-13</totfact>
</mgrwt>
</event>
<event>
 4    1 -0.5245809E-019  0.1502208E+02  0.7818608E-02  0.1867395E+00
         -2   -1    0    0    0  501 -0.00000000000E+00  0.00000000000E+00  0.11998161547E+03  0.11998161550E+03  0.25500000000E-02 0. -1.
          2   -1    0    0  501    0  0.00000000000E+00 -0.00000000000E+00 -0.47019951139E+00  0.47020642596E+00  0.25500000000E-02 0.  1.
         31    1    1    2    0    0 -0.31398604933E+00  0.42306074077E+00  0.53147419484E+02  0.53669215492E+02  0.74470750000E+01 0.  1.
        -31    1    1    2    0    0  0.31398604933E+00 -0.42306074077E+00  0.66363996475E+02  0.66782606432E+02  0.74470750000E+01 0. -1.
<mgrwt>
<rscale>  0 0.15022079E+02</rscale>
<asrwt>0</asrwt>
<pdfrwt beam="2">  1        2 0.99865132E+00 0.15022079E+02</pdfrwt>
<pdfrwt beam="1">  1       -2 0.99597994E+00 0.15022079E+02</pdfrwt>
<totfact>-0.44648588E-14</totfact>
</mgrwt>
</event>
<event>
 4    1 -0.5245809E-019  0.1495859E+02  0.7818608E-02  0.1869335E+00
          2   -1    0    0  501    0  0.00000000000E+00  0.00000000000E+00  0.11937387680E+03  0.11937387683E+03  0.25500000000E-02 0.  1.
         -2   -1    0    0    0  501 -0.00000000000E+00 -0.00000000000E+00 -0.46860717298E+00  0.46861411104E+00  0.25500000000E-02 0. -1.
         31    1    1    2    0    0 -0.50738746498E+00 -0.19748203207E+00  0.56011321365E+02  0.56506844615E+02  0.74470750000E+01 0. -1.
        -31    1    1    2    0    0  0.50738746498E+00  0.19748203207E+00  0.62893948261E+02  0.63335646322E+02  0.74470750000E+01 0. -1.
<mgrwt>
<rscale>  0 0.14958592E+02</rscale>
<asrwt>0</asrwt>
<pdfrwt beam="1">  1        2 0.99094156E+00 0.14958592E+02</pdfrwt>
<pdfrwt beam="2">  1       -2 0.99526287E+00 0.14958592E+02</pdfrwt>
<totfact>-0.16286265E-13</totfact>
</mgrwt>
</event>
<event>
 4    1 -0.5245809E-019  0.1492715E+02  0.7818608E-02  0.1870300E+00
         -2   -1    0    0    0  501 -0.00000000000E+00  0.00000000000E+00  0.12029611019E+03  0.12029611022E+03  0.25500000000E-02 0. -1.
          2   -1    0    0  501    0  0.00000000000E+00 -0.00000000000E+00 -0.46306167757E+00  0.46306869872E+00  0.25500000000E-02 0.  1.
         31    1    1    2    0    0  0.94091137813E-01  0.14920058932E+00  0.56166227126E+02  0.56658054234E+02  0.74470750000E+01 0.  1.
        -31    1    1    2    0    0 -0.94091137813E-01 -0.14920058932E+00  0.63666821388E+02  0.64101124684E+02  0.74470750000E+01 0. -1.
<mgrwt>
<rscale>  0 0.14927149E+02</rscale>
<asrwt>0</asrwt>
<pdfrwt beam="2">  1        2 0.98355975E+00 0.14927149E+02</pdfrwt>
<pdfrwt beam="1">  1       -2 0.99852138E+00 0.14927149E+02</pdfrwt>
<totfact>-0.20324750E-13</totfact>
</mgrwt>
</event>
<event>
 4    1 -0.5245809E-019  0.1491936E+02  0.7818608E-02  0.1870539E+00
         -2   -1    0    0    0  501 -0.00000000000E+00  0.00000000000E+00  0.11991606359E+03  0.11991606361E+03  0.25500000000E-02 0. -1.
          2   -1    0    0  501    0  0.00000000000E+00 -0.00000000000E+00 -0.46404429718E+00  0.46405130346E+00  0.25500000000E-02 0.  1.
         31    1    1    2    0    0 -0.42302871818E+00  0.74516337842E-01  0.60193490957E+02  0.60653934626E+02  0.74470750000E+01 0.  1.
        -31    1    1    2    0    0  0.42302871818E+00 -0.74516337842E-01  0.59258528332E+02  0.59726180290E+02  0.74470750000E+01 0.  1.
<mgrwt>
<rscale>  0 0.14919355E+02</rscale>
<asrwt>0</asrwt>
<pdfrwt beam="2">  1        2 0.98562682E+00 0.14919355E+02</pdfrwt>
<pdfrwt beam="1">  1       -2 0.99538702E+00 0.14919355E+02</pdfrwt>
<totfact>-0.30953973E-13</totfact>
</mgrwt>
</event>
<event>
 4    1 -0.5245809E-019  0.1494148E+02  0.7818608E-02  0.1869859E+00
          2   -1    0    0  501    0  0.00000000000E+00  0.00000000000E+00  0.11906250215E+03  0.11906250218E+03  0.25500000000E-02 0.  1.
         -2   -1    0    0    0  501 -0.00000000000E+00 -0.00000000000E+00 -0.46875858549E+00  0.46876552131E+00  0.25500000000E-02 0. -1.
         31    1    1    2    0    0 -0.23528839120E+00 -0.82136146927E-01  0.63612056335E+02  0.64046972951E+02  0.74470750000E+01 0.  1.
        -31    1    1    2    0    0  0.23528839120E+00  0.82136146927E-01  0.54981687231E+02  0.55484294749E+02  0.74470750000E+01 0. -1.
<mgrwt>
<rscale>  0 0.14941484E+02</rscale>
<asrwt>0</asrwt>
<pdfrwt beam="1">  1        2 0.98836815E+00 0.14941484E+02</pdfrwt>
<pdfrwt beam="2">  1       -2 0.99557300E+00 0.14941484E+02</pdfrwt>
<totfact>-0.20771362E-13</totfact>
</mgrwt>
</event>
<event>
 4    1  0.5245809E-019  0.1490984E+02  0.7818608E-02  0.1870832E+00
          2   -1    0    0  501    0  0.00000000000E+00  0.00000000000E+00  0.11987652726E+03  0.11987652729E+03  0.25500000000E-02 0. -1.
         -2   -1    0    0    0  501 -0.00000000000E+00 -0.00000000000E+00 -0.46360536315E+00  0.46361237607E+00  0.25500000000E-02 0.  1.
         31    1    1    2    0    0  0.31902533783E+00 -0.22030242584E-01  0.60682908134E+02  0.61138993516E+02  0.74470750000E+01 0. -1.
        -31    1    1    2    0    0 -0.31902533783E+00  0.22030242584E-01  0.58730013763E+02  0.59201146147E+02  0.74470750000E+01 0.  1.
<mgrwt>
<rscale>  0 0.14909839E+02</rscale>
<asrwt>0</asrwt>
<pdfrwt beam="1">  1        2 0.99505647E+00 0.14909839E+02</pdfrwt>
<pdfrwt beam="2">  1       -2 0.98469688E+00 0.14909839E+02</pdfrwt>
<totfact> 0.52410313E-13</totfact>
</mgrwt>
</event>
<event>
 4    1  0.5245809E-019  0.1496169E+02  0.7818608E-02  0.1869240E+00
          2   -1    0    0  501    0  0.00000000000E+00  0.00000000000E+00  0.12042370002E+03  0.12042370004E+03  0.25500000000E-02 0.  1.
         -2   -1    0    0    0  501 -0.00000000000E+00 -0.00000000000E+00 -0.46471407480E+00  0.46472107099E+00  0.25500000000E-02 0. -1.
         31    1    1    2    0    0  0.53875646518E+00  0.32623630359E+00  0.57331587101E+02  0.57816662773E+02  0.74470750000E+01 0. -1.
        -31    1    1    2    0    0 -0.53875646518E+00 -0.32623630359E+00  0.62627398841E+02  0.63071758342E+02  0.74470750000E+01 0.  1.
<mgrwt>
<rscale>  0 0.14961686E+02</rscale>
<asrwt>0</asrwt>
<pdfrwt beam="1">  1        2 0.99959005E+00 0.14961686E+02</pdfrwt>
<pdfrwt beam="2">  1       -2 0.98705997E+00 0.14961686E+02</pdfrwt>
<totfact> 0.32174702E-14</totfact>
</mgrwt>
</event>
<event>
 4    1 -0.5245809E-019  0.1490930E+02  0.7818608E-02  0.1870849E+00
         -2   -1    0    0    0  501 -0.00000000000E+00  0.00000000000E+00  0.11999813064E+03  0.11999813067E+03  0.25500000000E-02 0. -1.
          2   -1    0    0  501    0  0.00000000000E+00 -0.00000000000E+00 -0.46310221137E+00  0.46310923191E+00  0.25500000000E-02 0.  1.
         31    1    1    2    0    0 -0.10135901090E+00  0.27342655588E+00  0.58418865198E+02  0.58892340527E+02  0.74470750000E+01 0.  1.
        -31    1    1    2    0    0  0.10135901090E+00 -0.27342655588E+00  0.61116163233E+02  0.61568899374E+02  0.74470750000E+01 0. -1.
<mgrwt>
<rscale>  0 0.14909302E+02</rscale>
<asrwt>0</asrwt>
<pdfrwt beam="2">  1        2 0.98363615E+00 0.14909302E+02</pdfrwt>
<pdfrwt beam="1">  1       -2 0.99605781E+00 0.14909302E+02</pdfrwt>
<totfact>-0.40563293E-13</totfact>
</mgrwt>
</event>
<event>
 4    1 -0.5245809E-019  0.1489976E+02  0.7818608E-02  0.1871143E+00
          2   -1    0    0  501    0  0.00000000000E+00  0.00000000000E+00  0.11885384640E+03  0.11885384643E+03  0.25500000000E-02 0. -1.
         -2   -1    0    0    0  501 -0.00000000000E+00 -0.00000000000E+00 -0.46696242729E+00  0.46696938978E+00  0.25500000000E-02 0.  1.
         31    1    1    2    0    0  0.75723650358E-01 -0.66731720615E-01  0.57770218331E+02  0.58248323918E+02  0.74470750000E+01 0. -1.
        -31    1    1    2    0    0 -0.75723650358E-01  0.66731720615E-01  0.60616665645E+02  0.61072491903E+02  0.74470750000E+01 0. -1.
<mgrwt>
<rscale>  0 0.14899758E+02</rscale>
<asrwt>0</asrwt>
<pdfrwt beam="1">  1        2 0.98662799E+00 0.14899758E+02</pdfrwt>
<pdfrwt beam="2">  1       -2 0.99176639E+00 0.14899758E+02</pdfrwt>
<totfact>-0.16124732E-13</totfact>
</mgrwt>
</event>
<event>
 4    1  0.5245809E-019  0.1490913E+02  0.7818608E-02  0.1870854E+00
          2   -1    0    0  501    0  0.00000000000E+00  0.00000000000E+00  0.12033384955E+03  0.12033384957E+03  0.25500000000E-02 0.  1.
         -2   -1    0    0    0  501 -0.00000000000E+00 -0.00000000000E+00 -0.46179943908E+00  0.46180647942E+00  0.25500000000E-02 0. -1.
         31    1    1    2    0    0  0.30988460453E+00  0.35743503536E-01  0.60904863075E+02  0.61359258293E+02  0.74470750000E+01 0.  1.
        -31    1    1    2    0    0 -0.30988460453E+00 -0.35743503536E-01  0.58967187032E+02  0.59436397759E+02  0.74470750000E+01 0. -1.
<mgrwt>
<rscale>  0 0.14909129E+02</rscale>
<asrwt>0</asrwt>
<pdfrwt beam="1">  1        2 0.99882300E+00 0.14909129E+02</pdfrwt>
<pdfrwt beam="2">  1       -2 0.98089018E+00 0.14909129E+02</pdfrwt>
<totfact> 0.42883820E-13</totfact>
</mgrwt>
</event>
<event>
 4    1  0.5245809E-019  0.1490768E+02  0.7818608E-02  0.1870899E+00
          2   -1    0    0  501    0  0.00000000000E+00  0.00000000000E+00  0.11994249680E+03  0.11994249683E+03  0.25500000000E-02 0. -1.
         -2   -1    0    0    0  501 -0.00000000000E+00 -0.00000000000E+00 -0.46321604071E+00  0.46322305952E+00  0.25500000000E-02 0.  1.
         31    1    1    2    0    0 -0.31066067812E+00  0.44261323187E-01  0.60128458016E+02  0.60588685896E+02  0.74470750000E+01 0. -1.
        -31    1    1    2    0    0  0.31066067812E+00 -0.44261323187E-01  0.59350822747E+02  0.59817033994E+02  0.74470750000E+01 0. -1.
<mgrwt>
<rscale>  0 0.14907678E+02</rscale>
<asrwt>0</asrwt>
<pdfrwt beam="1">  1        2 0.99559874E+00 0.14907678E+02</pdfrwt>
<pdfrwt beam="2">  1       -2 0.98387524E+00 0.14907678E+02</pdfrwt>
<totfact> 0.60782501E-13</totfact>
</mgrwt>
</event>
<event>
 4    1  0.5245809E-019  0.1493748E+02  0.7818608E-02  0.1869982E+00
          2   -1    0    0  501    0  0.00000000000E+00  0.00000000000E+00  0.12010889869E+03  0.12010889872E+03  0.25500000000E-02 0. -1.
         -2   -1    0    0    0  501 -0.00000000000E+00 -0.00000000000E+00 -0.46442581461E+00  0.46443281514E+00  0.25500000000E-02 0.  1.
         31    1    1    2    0    0  0.22152612411E+00  0.39151301483E+00  0.62627885308E+02  0.63070700809E+02  0.74470750000E+01 0. -1.
        -31    1    1    2    0    0 -0.22152612411E+00 -0.39151301483E+00  0.57016587567E+02  0.57502630724E+02  0.74470750000E+01 0.  1.
<mgrwt>
<rscale>  0 0.14937483E+02</rscale>
<asrwt>0</asrwt>
<pdfrwt beam="1">  1        2 0.99698467E+00 0.14937483E+02</pdfrwt>
<pdfrwt beam="2">  1       -2 0.98644013E+00 0.14937483E+02</pdfrwt>
<totfact> 0.22650840E-13</totfact>
</mgrwt>
</event>
<event>
 4    1 -0.5245809E-019  0.1496720E+02  0.7818608E-02  0.1869071E+00
         -2   -1    0    0    0  501 -0.00000000000E+00  0.00000000000E+00  0.12006061140E+03  0.12006061143E+03  0.25500000000E-02 0. -1.
          2   -1    0    0  501    0  0.00000000000E+00 -0.00000000000E+00 -0.46646306552E+00  0.46647003547E+00  0.25500000000E-02 0.  1.
         31    1    1    2    0    0  0.49248339470E+00 -0.97491903661E-01  0.55435993421E+02  0.55936216687E+02  0.74470750000E+01 0.  1.
        -31    1    1    2    0    0 -0.49248339470E+00  0.97491903661E-01  0.64158154913E+02  0.64590864775E+02  0.74470750000E+01 0. -1.
<mgrwt>
<rscale>  0 0.14967199E+02</rscale>
<asrwt>0</asrwt>
<pdfrwt beam="2">  1        2 0.99074890E+00 0.14967199E+02</pdfrwt>
<pdfrwt beam="1">  1       -2 0.99660224E+00 0.14967199E+02</pdfrwt>
<totfact>-0.14429963E-13</totfact>
</mgrwt>
</event>
<event>
 4    1 -0.5245809E-019  0.1501833E+02  0.7818608E-02  0.1867510E+00
         -2   -1    0    0    0  501 -0.00000000000E+00  0.00000000000E+00  0.12040843276E+03  0.12040843279E+03  0.25500000000E-02 0.  1.
          2   -1    0    0  501    0  0.00000000000E+00 -0.00000000000E+00 -0.46829873499E+00  0.46830567763E+00  0.25500000000E-02 0. -1.
         31    1    1    2    0    0 -0.85231547538E+00  0.18226718484E-01  0.63586019228E+02  0.64026303510E+02  0.74470750000E+01 0.  1.
        -31    1    1    2    0    0  0.85231547538E+00 -0.18226718484E-01  0.56354114802E+02  0.56850434959E+02  0.74470750000E+01 0.  1.
<mgrwt>
<rscale>  0 0.15018327E+02</rscale>
<asrwt>0</asrwt>
<pdfrwt beam="2">  1        2 0.99464375E+00 0.15018327E+02</pdfrwt>
<pdfrwt beam="1">  1       -2 0.99949345E+00 0.15018327E+02</pdfrwt>
<totfact>-0.21169272E-14</totfact>
</mgrwt>
</event>
<event>
 4    1 -0.5245809E-019  0.1502945E+02  0.7818608E-02  0.1867171E+00
         -2   -1    0    0    0  501 -0.00000000000E+00  0.00000000000E+00  0.12020319715E+03  0.12020319718E+03  0.25500000000E-02 0. -1.
          2   -1    0    0  501    0  0.00000000000E+00 -0.00000000000E+00 -0.46979340479E+00  0.46980032533E+00  0.25500000000E-02 0.  1.
         31    1    1    2    0    0 -0.88068878588E+00 -0.46990277786E+00  0.60874059514E+02  0.61336012824E+02  0.74470750000E+01 0. -1.
        -31    1    1    2    0    0  0.88068878588E+00  0.46990277786E+00  0.58859344234E+02  0.59336984681E+02  0.74470750000E+01 0.  1.
<mgrwt>
<rscale>  0 0.15029450E+02</rscale>
<asrwt>0</asrwt>
<pdfrwt beam="2">  1        2 0.99779935E+00 0.15029450E+02</pdfrwt>
<pdfrwt beam="1">  1       -2 0.99780877E+00 0.15029450E+02</pdfrwt>
<totfact>-0.45056196E-14</totfact>
</mgrwt>
</event>
<event>
 4    1 -0.5245809E-019  0.1498861E+02  0.7818608E-02  0.1868416E+00
          2   -1    0    0  501    0  0.00000000000E+00  0.00000000000E+00  0.11991540666E+03  0.11991540669E+03  0.25500000000E-02 0.  1.
         -2   -1    0    0    0  501 -0.00000000000E+00 -0.00000000000E+00 -0.46836506062E+00  0.46837200227E+00  0.25500000000E-02 0. -1.
         31    1    1    2    0    0 -0.73946553389E+00 -0.35589035972E+00  0.61165043500E+02  0.61622195187E+02  0.74470750000E+01 0.  1.
        -31    1    1    2    0    0  0.73946553389E+00  0.35589035972E+00  0.58281998100E+02  0.58761583504E+02  0.74470750000E+01 0.  1.
<mgrwt>
<rscale>  0 0.14988610E+02</rscale>
<asrwt>0</asrwt>
<pdfrwt beam="1">  1        2 0.99541731E+00 0.14988610E+02</pdfrwt>
<pdfrwt beam="2">  1       -2 0.99476822E+00 0.14988610E+02</pdfrwt>
<totfact>-0.11420758E-13</totfact>
</mgrwt>
</event>
<event>
 4    1  0.5245809E-019  0.1493110E+02  0.7818608E-02  0.1870178E+00
         -2   -1    0    0    0  501 -0.00000000000E+00  0.00000000000E+00  0.11865955563E+03  0.11865955566E+03  0.25500000000E-02 0.  1.
          2   -1    0    0  501    0  0.00000000000E+00 -0.00000000000E+00 -0.46969686483E+00  0.46970378680E+00  0.25500000000E-02 0. -1.
         31    1    1    2    0    0 -0.42683394637E+00 -0.21847945768E+00  0.60798479891E+02  0.61254746784E+02  0.74470750000E+01 0. -1.
        -31    1    1    2    0    0  0.42683394637E+00  0.21847945768E+00  0.57391378872E+02  0.57874512658E+02  0.74470750000E+01 0.  1.
<mgrwt>
<rscale>  0 0.14931100E+02</rscale>
<asrwt>0</asrwt>
<pdfrwt beam="2">  1        2 0.99754459E+00 0.14931100E+02</pdfrwt>
<pdfrwt beam="1">  1       -2 0.98504407E+00 0.14931100E+02</pdfrwt>
<totfact> 0.30704017E-13</totfact>
</mgrwt>
</event>
<event>
 4    1 -0.5245809E-019  0.1492180E+02  0.7818608E-02  0.1870464E+00
         -2   -1    0    0    0  501 -0.00000000000E+00  0.00000000000E+00  0.12034391387E+03  0.12034391390E+03  0.25500000000E-02 0.  1.
          2   -1    0    0  501    0  0.00000000000E+00 -0.00000000000E+00 -0.46254623434E+00  0.46255326332E+00  0.25500000000E-02 0. -1.
         31    1    1    2    0    0  0.94814938284E-01  0.29531900650E+00  0.62624850698E+02  0.63066845919E+02  0.74470750000E+01 0.  1.
        -31    1    1    2    0    0 -0.94814938284E-01 -0.29531900650E+00  0.57256516939E+02  0.57739621243E+02  0.74470750000E+01 0. -1.
<mgrwt>
<rscale>  0 0.14921803E+02</rscale>
<asrwt>0</asrwt>
<pdfrwt beam="2">  1        2 0.98247064E+00 0.14921803E+02</pdfrwt>
<pdfrwt beam="1">  1       -2 0.99891239E+00 0.14921803E+02</pdfrwt>
<totfact>-0.18586667E-13</totfact>
</mgrwt>
</event>
<event>
 4    1  0.5245809E-019  0.1491603E+02  0.7818608E-02  0.1870642E+00
          2   -1    0    0  501    0  0.00000000000E+00  0.00000000000E+00  0.11976061998E+03  0.11976062001E+03  0.25500000000E-02 0.  1.
         -2   -1    0    0    0  501 -0.00000000000E+00 -0.00000000000E+00 -0.46443949414E+00  0.46444649446E+00  0.25500000000E-02 0. -1.
         31    1    1    2    0    0 -0.15877881328E+00  0.22090513637E+00  0.57242870622E+02  0.57725896900E+02  0.74470750000E+01 0. -1.
        -31    1    1    2    0    0  0.15877881328E+00 -0.22090513637E+00  0.62053309862E+02  0.62499169600E+02  0.74470750000E+01 0.  1.
<mgrwt>
<rscale>  0 0.14916030E+02</rscale>
<asrwt>0</asrwt>
<pdfrwt beam="1">  1        2 0.99410497E+00 0.14916030E+02</pdfrwt>
<pdfrwt beam="2">  1       -2 0.98645802E+00 0.14916030E+02</pdfrwt>
<totfact> 0.32975397E-13</totfact>
</mgrwt>
</event>
<event>
 4    1 -0.5245809E-019  0.1491752E+02  0.7818608E-02  0.1870596E+00
          2   -1    0    0  501    0  0.00000000000E+00  0.00000000000E+00  0.11849875433E+03  0.11849875435E+03  0.25500000000E-02 0. -1.
         -2   -1    0    0    0  501 -0.00000000000E+00 -0.00000000000E+00 -0.46947901770E+00  0.46948594287E+00  0.25500000000E-02 0.  1.
         31    1    1    2    0    0 -0.18042800800E+00 -0.66232143775E-01  0.61968917188E+02  0.62415082829E+02  0.74470750000E+01 0. -1.
        -31    1    1    2    0    0  0.18042800800E+00  0.66232143775E-01  0.56060358121E+02  0.56553157469E+02  0.74470750000E+01 0.  1.
<mgrwt>
<rscale>  0 0.14917519E+02</rscale>
<asrwt>0</asrwt>
<pdfrwt beam="1">  1        2 0.98371265E+00 0.14917519E+02</pdfrwt>
<pdfrwt beam="2">  1       -2 0.99707843E+00 0.14917519E+02</pdfrwt>
<totfact>-0.33803946E-13</totfact>
</mgrwt>
</event>
<event>
 4    1  0.5245809E-019  0.1492841E+02  0.7818608E-02  0.1870261E+00
          2   -1    0    0  501    0  0.00000000000E+00  0.00000000000E+00  0.12030756002E+03  0.12030756005E+03  0.25500000000E-02 0.  1.
         -2   -1    0    0    0  501 -0.00000000000E+00 -0.00000000000E+00 -0.46309573590E+00  0.46310275654E+00  0.25500000000E-02 0. -1.
         31    1    1    2    0    0  0.45138464967E+00  0.15496339231E+00  0.61267600185E+02  0.61720381724E+02  0.74470750000E+01 0.  1.
        -31    1    1    2    0    0 -0.45138464967E+00 -0.15496339231E+00  0.58576864099E+02  0.59050281078E+02  0.74470750000E+01 0. -1.
<mgrwt>
<rscale>  0 0.14928408E+02</rscale>
<asrwt>0</asrwt>
<pdfrwt beam="1">  1        2 0.99861634E+00 0.14928408E+02</pdfrwt>
<pdfrwt beam="2">  1       -2 0.98363217E+00 0.14928408E+02</pdfrwt>
<totfact> 0.28056683E-13</totfact>
</mgrwt>
</event>
<event>
 4    1  0.5245809E-019  0.1493825E+02  0.7818608E-02  0.1869959E+00
          2   -1    0    0  501    0  0.00000000000E+00  0.00000000000E+00  0.12006828318E+03  0.12006828321E+03  0.25500000000E-02 0. -1.
         -2   -1    0    0    0  501 -0.00000000000E+00 -0.00000000000E+00 -0.46463071209E+00  0.46463770953E+00  0.25500000000E-02 0.  1.
         31    1    1    2    0    0  0.15866820361E-01  0.44233022874E+00  0.62744445399E+02  0.63186393015E+02  0.74470750000E+01 0. -1.
        -31    1    1    2    0    0 -0.15866820361E-01 -0.44233022874E+00  0.56859207070E+02  0.57346527903E+02  0.74470750000E+01 0.  1.
<mgrwt>
<rscale>  0 0.14938251E+02</rscale>
<asrwt>0</asrwt>
<pdfrwt beam="1">  1        2 0.99665052E+00 0.14938251E+02</pdfrwt>
<pdfrwt beam="2">  1       -2 0.98687236E+00 0.14938251E+02</pdfrwt>
<totfact> 0.20556270E-13</totfact>
</mgrwt>
</event>
<event>
 4    1  0.5245809E-019  0.1495997E+02  0.7818608E-02  0.1869293E+00
          2   -1    0    0  501    0  0.00000000000E+00  0.00000000000E+00  0.12009854290E+03  0.12009854293E+03  0.25500000000E-02 0.  1.
         -2   -1    0    0    0  501 -0.00000000000E+00 -0.00000000000E+00 -0.46586515185E+00  0.46587213075E+00  0.25500000000E-02 0. -1.
         31    1    1    2    0    0  0.23290996891E+00  0.60383641085E+00  0.61984182845E+02  0.62433298123E+02  0.74470750000E+01 0.  1.
        -31    1    1    2    0    0 -0.23290996891E+00 -0.60383641085E+00  0.57648494901E+02  0.58131116933E+02  0.74470750000E+01 0. -1.
<mgrwt>
<rscale>  0 0.14959966E+02</rscale>
<asrwt>0</asrwt>
<pdfrwt beam="1">  1        2 0.99691094E+00 0.14959966E+02</pdfrwt>
<pdfrwt beam="2">  1       -2 0.98948509E+00 0.14959966E+02</pdfrwt>
<totfact> 0.29807094E-14</totfact>
</mgrwt>
</event>
<event>
 4    1 -0.5245809E-019  0.1502162E+02  0.7818608E-02  0.1867409E+00
         -2   -1    0    0    0  501 -0.00000000000E+00  0.00000000000E+00  0.12030252296E+03  0.12030252299E+03  0.25500000000E-02 0.  1.
          2   -1    0    0  501    0  0.00000000000E+00 -0.00000000000E+00 -0.46891669765E+00  0.46892363113E+00  0.25500000000E-02 0. -1.
         31    1    1    2    0    0 -0.39448823463E+00 -0.28336098674E+00  0.53106903282E+02  0.53628705155E+02  0.74470750000E+01 0. -1.
        -31    1    1    2    0    0  0.39448823463E+00  0.28336098674E+00  0.66726702984E+02  0.67142741466E+02  0.74470750000E+01 0.  1.
<mgrwt>
<rscale>  0 0.15021622E+02</rscale>
<asrwt>0</asrwt>
<pdfrwt beam="2">  1        2 0.99594776E+00 0.15021622E+02</pdfrwt>
<pdfrwt beam="1">  1       -2 0.99862282E+00 0.15021622E+02</pdfrwt>
<totfact>-0.46131159E-14</totfact>
</mgrwt>
</event>
<event>
 4    1 -0.5245809E-019  0.1494121E+02  0.7818608E-02  0.1869868E+00
          2   -1    0    0  501    0  0.00000000000E+00  0.00000000000E+00  0.11960974349E+03  0.11960974352E+03  0.25500000000E-02 0.  1.
         -2   -1    0    0    0  501 -0.00000000000E+00 -0.00000000000E+00 -0.46659700919E+00  0.46660397715E+00  0.25500000000E-02 0. -1.
         31    1    1    2    0    0  0.23421429521E+00 -0.53464564530E+00  0.60388787736E+02  0.60849037072E+02  0.74470750000E+01 0. -1.
        -31    1    1    2    0    0 -0.23421429521E+00  0.53464564530E+00  0.58754358745E+02  0.59227310423E+02  0.74470750000E+01 0.  1.
<mgrwt>
<rscale>  0 0.14941214E+02</rscale>
<asrwt>0</asrwt>
<pdfrwt beam="1">  1        2 0.99287525E+00 0.14941214E+02</pdfrwt>
<pdfrwt beam="2">  1       -2 0.99101783E+00 0.14941214E+02</pdfrwt>
<totfact>-0.50690320E-14</totfact>
</mgrwt>
</event>
<event>
 4    1  0.5245809E-019  0.1491914E+02  0.7818608E-02  0.1870546E+00
          2   -1    0    0  501    0  0.00000000000E+00  0.00000000000E+00  0.12031491439E+03  0.12031491442E+03  0.25500000000E-02 0.  1.
         -2   -1    0    0    0  501 -0.00000000000E+00 -0.00000000000E+00 -0.46249284399E+00  0.46249987377E+00  0.25500000000E-02 0. -1.
         31    1    1    2    0    0  0.34130275133E+00 -0.21571730166E+00  0.58691406647E+02  0.59163359960E+02  0.74470750000E+01 0.  1.
        -31    1    1    2    0    0 -0.34130275133E+00  0.21571730166E+00  0.61161014902E+02  0.61614054333E+02  0.74470750000E+01 0.  1.
<mgrwt>
<rscale>  0 0.14919144E+02</rscale>
<asrwt>0</asrwt>
<pdfrwt beam="1">  1        2 0.99867217E+00 0.14919144E+02</pdfrwt>
<pdfrwt beam="2">  1       -2 0.98235676E+00 0.14919144E+02</pdfrwt>
<totfact> 0.35869709E-13</totfact>
</mgrwt>
</event>
<event>
 4    1 -0.5245809E-019  0.1501451E+02  0.7818608E-02  0.1867626E+00
          2   -1    0    0  501    0  0.00000000000E+00  0.00000000000E+00  0.12031384477E+03  0.12031384479E+03  0.25500000000E-02 0. -1.
         -2   -1    0    0    0  501 -0.00000000000E+00 -0.00000000000E+00 -0.46842852643E+00  0.46843546714E+00  0.25500000000E-02 0.  1.
         31    1    1    2    0    0 -0.23507751023E+00 -0.50827612446E+00  0.53762979204E+02  0.54279189981E+02  0.74470750000E+01 0.  1.
        -31    1    1    2    0    0  0.23507751023E+00  0.50827612446E+00  0.66082437036E+02  0.66503090279E+02  0.74470750000E+01 0. -1.
<mgrwt>
<rscale>  0 0.15014507E+02</rscale>
<asrwt>0</asrwt>
<pdfrwt beam="1">  1        2 0.99871240E+00 0.15014507E+02</pdfrwt>
<pdfrwt beam="2">  1       -2 0.99491531E+00 0.15014507E+02</pdfrwt>
<totfact>-0.45690892E-14</totfact>
</mgrwt>
</event>
<event>
 4    1  0.5245809E-019  0.1493664E+02  0.7818608E-02  0.1870008E+00
          2   -1    0    0  501    0  0.00000000000E+00  0.00000000000E+00  0.12013946121E+03  0.12013946124E+03  0.25500000000E-02 0. -1.
         -2   -1    0    0    0  501 -0.00000000000E+00 -0.00000000000E+00 -0.46425518234E+00  0.46426218544E+00  0.25500000000E-02 0.  1.
         31    1    1    2    0    0 -0.37677656523E+00  0.34954160790E+00  0.61691637973E+02  0.62141622619E+02  0.74470750000E+01 0. -1.
        -31    1    1    2    0    0  0.37677656523E+00 -0.34954160790E+00  0.57983568056E+02  0.58462100805E+02  0.74470750000E+01 0. -1.
<mgrwt>
<rscale>  0 0.14936638E+02</rscale>
<asrwt>0</asrwt>
<pdfrwt beam="1">  1        2 0.99723597E+00 0.14936638E+02</pdfrwt>
<pdfrwt beam="2">  1       -2 0.98608007E+00 0.14936638E+02</pdfrwt>
<totfact> 0.24226809E-13</totfact>
</mgrwt>
</event>
<event>
 4    1 -0.5245809E-019  0.1498913E+02  0.7818608E-02  0.1868400E+00
         -2   -1    0    0    0  501 -0.00000000000E+00  0.00000000000E+00  0.11977064125E+03  0.11977064128E+03  0.25500000000E-02 0.  1.
          2   -1    0    0  501    0  0.00000000000E+00 -0.00000000000E+00 -0.46896353171E+00  0.46897046450E+00  0.25500000000E-02 0. -1.
         31    1    1    2    0    0 -0.32448117999E+00  0.77599485111E+00  0.60018377388E+02  0.60484477401E+02  0.74470750000E+01 0. -1.
        -31    1    1    2    0    0  0.32448117999E+00 -0.77599485111E+00  0.59283300332E+02  0.59755134343E+02  0.74470750000E+01 0. -1.
<mgrwt>
<rscale>  0 0.14989127E+02</rscale>
<asrwt>0</asrwt>
<pdfrwt beam="2">  1        2 0.99602967E+00 0.14989127E+02</pdfrwt>
<pdfrwt beam="1">  1       -2 0.99422524E+00 0.14989127E+02</pdfrwt>
<totfact>-0.10412100E-13</totfact>
</mgrwt>
</event>
<event>
 4    1  0.5245809E-019  0.1491197E+02  0.7818608E-02  0.1870767E+00
         -2   -1    0    0    0  501 -0.00000000000E+00  0.00000000000E+00  0.11821792023E+03  0.11821792026E+03  0.25500000000E-02 0. -1.
          2   -1    0    0  501    0  0.00000000000E+00 -0.00000000000E+00 -0.47024445901E+00  0.47025137291E+00  0.25500000000E-02 0.  1.
         31    1    1    2    0    0 -0.11159734316E+00  0.20767999674E+00  0.61085635125E+02  0.61538356572E+02  0.74470750000E+01 0. -1.
        -31    1    1    2    0    0  0.11159734316E+00 -0.20767999674E+00  0.56662040649E+02  0.57149815061E+02  0.74470750000E+01 0.  1.
<mgrwt>
<rscale>  0 0.14911973E+02</rscale>
<asrwt>0</asrwt>
<pdfrwt beam="2">  1        2 0.99868824E+00 0.14911973E+02</pdfrwt>
<pdfrwt beam="1">  1       -2 0.98139684E+00 0.14911973E+02</pdfrwt>
<totfact> 0.42882847E-13</totfact>
</mgrwt>
</event>
<event>
 4    1 -0.5245809E-019  0.1492613E+02  0.7818608E-02  0.1870331E+00
          2   -1    0    0  501    0  0.00000000000E+00  0.00000000000E+00  0.11840685451E+03  0.11840685453E+03  0.25500000000E-02 0.  1.
         -2   -1    0    0    0  501 -0.00000000000E+00 -0.00000000000E+00 -0.47038575506E+00  0.47039266689E+00  0.25500000000E-02 0. -1.
         31    1    1    2    0    0 -0.42747173637E+00 -0.18037621605E+00  0.57757324693E+02  0.58237296893E+02  0.74470750000E+01 0. -1.
        -31    1    1    2    0    0  0.42747173637E+00  0.18037621605E+00  0.60179144058E+02  0.60639950307E+02  0.74470750000E+01 0.  1.
<mgrwt>
<rscale>  0 0.14926126E+02</rscale>
<asrwt>0</asrwt>
<pdfrwt beam="1">  1        2 0.98296025E+00 0.14926126E+02</pdfrwt>
<pdfrwt beam="2">  1       -2 0.99899345E+00 0.14926126E+02</pdfrwt>
<totfact>-0.15941632E-13</totfact>
</mgrwt>
</event>
<event>
 4    1  0.5245809E-019  0.1490454E+02  0.7818608E-02  0.1870996E+00
          2   -1    0    0  501    0  0.00000000000E+00  0.00000000000E+00  0.11999906111E+03  0.11999906114E+03  0.25500000000E-02 0. -1.
         -2   -1    0    0    0  501 -0.00000000000E+00 -0.00000000000E+00 -0.46280281908E+00  0.46280984416E+00  0.25500000000E-02 0.  1.
         31    1    1    2    0    0  0.29776231831E-01  0.27393812849E+00  0.60078401564E+02  0.60538823818E+02  0.74470750000E+01 0.  1.
        -31    1    1    2    0    0 -0.29776231831E-01 -0.27393812849E+00  0.59457856731E+02  0.59923047167E+02  0.74470750000E+01 0.  1.
<mgrwt>
<rscale>  0 0.14904540E+02</rscale>
<asrwt>0</asrwt>
<pdfrwt beam="1">  1        2 0.99606303E+00 0.14904540E+02</pdfrwt>
<pdfrwt beam="2">  1       -2 0.98300272E+00 0.14904540E+02</pdfrwt>
<totfact> 0.69766634E-13</totfact>
</mgrwt>
</event>
<event>
 4    1  0.5245809E-019  0.1493036E+02  0.7818608E-02  0.1870201E+00
          2   -1    0    0  501    0  0.00000000000E+00  0.00000000000E+00  0.12034983103E+03  0.12034983105E+03  0.25500000000E-02 0.  1.
         -2   -1    0    0    0  501 -0.00000000000E+00 -0.00000000000E+00 -0.46305427483E+00  0.46306129609E+00  0.25500000000E-02 0. -1.
         31    1    1    2    0    0  0.48259827766E+00  0.48605392053E-01  0.58435195311E+02  0.58909814468E+02  0.74470750000E+01 0. -1.
        -31    1    1    2    0    0 -0.48259827766E+00 -0.48605392053E-01  0.61451581439E+02  0.61903077880E+02  0.74470750000E+01 0.  1.
<mgrwt>
<rscale>  0 0.14930362E+02</rscale>
<asrwt>0</asrwt>
<pdfrwt beam="1">  1        2 0.99896552E+00 0.14930362E+02</pdfrwt>
<pdfrwt beam="2">  1       -2 0.98354577E+00 0.14930362E+02</pdfrwt>
<totfact> 0.22250947E-13</totfact>
</mgrwt>
</event>
<event>
 4    1  0.5245809E-019  0.1491778E+02  0.7818608E-02  0.1870588E+00
          2   -1    0    0  501    0  0.00000000000E+00  0.00000000000E+00  0.11997119113E+03  0.11997119115E+03  0.25500000000E-02 0. -1.
         -2   -1    0    0    0  501 -0.00000000000E+00 -0.00000000000E+00 -0.46373293990E+00  0.46373995088E+00  0.25500000000E-02 0.  1.
         31    1    1    2    0    0  0.71100201422E-01 -0.40787858614E+00  0.59201980299E+02  0.59669965791E+02  0.74470750000E+01 0. -1.
        -31    1    1    2    0    0 -0.71100201422E-01  0.40787858614E+00  0.60305477887E+02  0.60764965312E+02  0.74470750000E+01 0.  1.
<mgrwt>
<rscale>  0 0.14917777E+02</rscale>
<asrwt>0</asrwt>
<pdfrwt beam="1">  1        2 0.99584027E+00 0.14917777E+02</pdfrwt>
<pdfrwt beam="2">  1       -2 0.98496980E+00 0.14917777E+02</pdfrwt>
<totfact> 0.44251718E-13</totfact>
</mgrwt>
</event>
<event>
 4    1  0.5245809E-019  0.1492521E+02  0.7818608E-02  0.1870359E+00
         -2   -1    0    0    0  501 -0.00000000000E+00  0.00000000000E+00  0.11849266915E+03  0.11849266918E+03  0.25500000000E-02 0. -1.
          2   -1    0    0  501    0  0.00000000000E+00 -0.00000000000E+00 -0.46998722278E+00  0.46999414047E+00  0.25500000000E-02 0.  1.
         31    1    1    2    0    0 -0.34445418841E+00  0.22072544813E+00  0.56992418956E+02  0.57478362128E+02  0.74470750000E+01 0.  1.
        -31    1    1    2    0    0  0.34445418841E+00 -0.22072544813E+00  0.61030262970E+02  0.61484301189E+02  0.74470750000E+01 0. -1.
<mgrwt>
<rscale>  0 0.14925207E+02</rscale>
<asrwt>0</asrwt>
<pdfrwt beam="2">  1        2 0.99815327E+00 0.14925207E+02</pdfrwt>
<pdfrwt beam="1">  1       -2 0.98366653E+00 0.14925207E+02</pdfrwt>
<totfact> 0.35285301E-13</totfact>
</mgrwt>
</event>
<event>
 4    1 -0.5245809E-019  0.1494078E+02  0.7818608E-02  0.1869881E+00
         -2   -1    0    0    0  501 -0.00000000000E+00  0.00000000000E+00  0.12014733315E+03  0.12014733318E+03  0.25500000000E-02 0.  1.
          2   -1    0    0  501    0  0.00000000000E+00 -0.00000000000E+00 -0.46448241237E+00  0.46448941205E+00  0.25500000000E-02 0. -1.
         31    1    1    2    0    0  0.58939764669E-01  0.52015031489E+00  0.62034316336E+02  0.62481912259E+02  0.74470750000E+01 0.  1.
        -31    1    1    2    0    0 -0.58939764669E-01 -0.52015031489E+00  0.57648534406E+02  0.58129910334E+02  0.74470750000E+01 0. -1.
<mgrwt>
<rscale>  0 0.14940783E+02</rscale>
<asrwt>0</asrwt>
<pdfrwt beam="2">  1        2 0.98656109E+00 0.14940783E+02</pdfrwt>
<pdfrwt beam="1">  1       -2 0.99730294E+00 0.14940783E+02</pdfrwt>
<totfact>-0.20296455E-13</totfact>
</mgrwt>
</event>
<event>
 4    1  0.5245809E-019  0.1490880E+02  0.7818608E-02  0.1870864E+00
         -2   -1    0    0    0  501 -0.00000000000E+00  0.00000000000E+00  0.11838268306E+03  0.11838268308E+03  0.25500000000E-02 0.  1.
          2   -1    0    0  501    0  0.00000000000E+00 -0.00000000000E+00 -0.46939037259E+00  0.46939729907E+00  0.25500000000E-02 0. -1.
         31    1    1    2    0    0 -0.24979658808E+00  0.60856164574E-01  0.60611224064E+02  0.61067548751E+02  0.74470750000E+01 0.  1.
        -31    1    1    2    0    0  0.24979658808E+00 -0.60856164574E-01  0.57302068618E+02  0.57784531631E+02  0.74470750000E+01 0. -1.
<mgrwt>
<rscale>  0 0.14908803E+02</rscale>
<asrwt>0</asrwt>
<pdfrwt beam="2">  1        2 0.99688705E+00 0.14908803E+02</pdfrwt>
<pdfrwt beam="1">  1       -2 0.98275216E+00 0.14908803E+02</pdfrwt>
<totfact> 0.63589697E-13</totfact>
</mgrwt>
</event>
<event>
 4    1 -0.5245809E-019  0.1496540E+02  0.7818608E-02  0.1869126E+00
         -2   -1    0    0    0  501 -0.00000000000E+00  0.00000000000E+00  0.12013022246E+03  0.12013022249E+03  0.25500000000E-02 0.  1.
          2   -1    0    0  501    0  0.00000000000E+00 -0.00000000000E+00 -0.46608065414E+00  0.46608762981E+00  0.25500000000E-02 0. -1.
         31    1    1    2    0    0 -0.24830289853E+00  0.66371250564E+00  0.58443315653E+02  0.58920134413E+02  0.74470750000E+01 0. -1.
        -31    1    1    2    0    0  0.24830289853E+00 -0.66371250564E+00  0.61220826154E+02  0.61676175706E+02  0.74470750000E+01 0.  1.
<mgrwt>
<rscale>  0 0.14965399E+02</rscale>
<asrwt>0</asrwt>
<pdfrwt beam="2">  1        2 0.98994205E+00 0.14965399E+02</pdfrwt>
<pdfrwt beam="1">  1       -2 0.99717467E+00 0.14965399E+02</pdfrwt>
<totfact>-0.13822760E-13</totfact>
</mgrwt>
</event>
<event>
 4    1 -0.5245809E-019  0.1489437E+02  0.7818608E-02  0.1871309E+00
         -2   -1    0    0    0  501 -0.00000000000E+00  0.00000000000E+00  0.11995635986E+03  0.11995635989E+03  0.25500000000E-02 0.  1.
          2   -1    0    0  501    0  0.00000000000E+00 -0.00000000000E+00 -0.46233620089E+00  0.46234323306E+00  0.25500000000E-02 0. -1.
         31    1    1    2    0    0  0.31721334055E-01 -0.44064642256E-02  0.59951705328E+02  0.60412473244E+02  0.74470750000E+01 0.  1.
        -31    1    1    2    0    0 -0.31721334055E-01  0.44064642256E-02  0.59542318332E+02  0.60006229877E+02  0.74470750000E+01 0. -1.
<mgrwt>
<rscale>  0 0.14894374E+02</rscale>
<asrwt>0</asrwt>
<pdfrwt beam="2">  1        2 0.98201409E+00 0.14894374E+02</pdfrwt>
<pdfrwt beam="1">  1       -2 0.99570609E+00 0.14894374E+02</pdfrwt>
<totfact>-0.55188495E-13</totfact>
</mgrwt>
</event>
<event>
 4    1 -0.5245809E-019  0.1500577E+02  0.7818608E-02  0.1867892E+00
         -2   -1    0    0    0  501 -0.00000000000E+00  0.00000000000E+00  0.11988568439E+03  0.11988568441E+03  0.25500000000E-02 0.  1.
          2   -1    0    0  501    0  0.00000000000E+00 -0.00000000000E+00 -0.46955472840E+00  0.46956165247E+00  0.25500000000E-02 0. -1.
         31    1    1    2    0    0  0.26165325640E+00 -0.77193637368E+00  0.63015372268E+02  0.63459123981E+02  0.74470750000E+01 0.  1.
        -31    1    1    2    0    0 -0.26165325640E+00  0.77193637368E+00  0.56400757390E+02  0.56896122086E+02  0.74470750000E+01 0. -1.
<mgrwt>
<rscale>  0 0.15005773E+02</rscale>
<asrwt>0</asrwt>
<pdfrwt beam="2">  1        2 0.99728412E+00 0.15005773E+02</pdfrwt>
<pdfrwt beam="1">  1       -2 0.99518138E+00 0.15005773E+02</pdfrwt>
<totfact>-0.81780249E-14</totfact>
</mgrwt>
</event>
<event>
 4    1 -0.5245809E-019  0.1493651E+02  0.7818608E-02  0.1870012E+00
          2   -1    0    0  501    0  0.00000000000E+00  0.00000000000E+00  0.11899811551E+03  0.11899811554E+03  0.25500000000E-02 0.  1.
         -2   -1    0    0    0  501 -0.00000000000E+00 -0.00000000000E+00 -0.46869970889E+00  0.46870664558E+00  0.25500000000E-02 0. -1.
         31    1    1    2    0    0  0.83836319757E-01  0.52434069795E+00  0.60737577613E+02  0.61194723809E+02  0.74470750000E+01 0.  1.
        -31    1    1    2    0    0 -0.83836319757E-01 -0.52434069795E+00  0.57791838190E+02  0.58272098376E+02  0.74470750000E+01 0.  1.
<mgrwt>
<rscale>  0 0.14936505E+02</rscale>
<asrwt>0</asrwt>
<pdfrwt beam="1">  1        2 0.98783527E+00 0.14936505E+02</pdfrwt>
<pdfrwt beam="2">  1       -2 0.99544634E+00 0.14936505E+02</pdfrwt>
<totfact>-0.22396046E-13</totfact>
</mgrwt>
</event>
<event>
 4    1 -0.5245809E-019  0.1492645E+02  0.7818608E-02  0.1870321E+00
         -2   -1    0    0    0  501 -0.00000000000E+00  0.00000000000E+00  0.12029493711E+03  0.12029493714E+03  0.25500000000E-02 0.  1.
          2   -1    0    0  501    0  0.00000000000E+00 -0.00000000000E+00 -0.46302262511E+00  0.46302964685E+00  0.25500000000E-02 0. -1.
         31    1    1    2    0    0 -0.21084200384E+00 -0.43219532079E+00  0.59126179307E+02  0.59595261998E+02  0.74470750000E+01 0. -1.
        -31    1    1    2    0    0  0.21084200384E+00  0.43219532079E+00  0.60705735179E+02  0.61162704787E+02  0.74470750000E+01 0. -1.
<mgrwt>
<rscale>  0 0.14926447E+02</rscale>
<asrwt>0</asrwt>
<pdfrwt beam="2">  1        2 0.98347709E+00 0.14926447E+02</pdfrwt>
<pdfrwt beam="1">  1       -2 0.99851136E+00 0.14926447E+02</pdfrwt>
<totfact>-0.20730466E-13</totfact>
</mgrwt>
</event>
<event>
 4    1 -0.5245809E-019  0.1493426E+02  0.7818608E-02  0.1870081E+00
          2   -1    0    0  501    0  0.00000000000E+00  0.00000000000E+00  0.11868852905E+03  0.11868852908E+03  0.25500000000E-02 0. -1.
         -2   -1    0    0    0  501 -0.00000000000E+00 -0.00000000000E+00 -0.46978095294E+00  0.46978787367E+00  0.25500000000E-02 0.  1.
         31    1    1    2    0    0  0.20125778304E+00  0.45350968401E+00  0.60944900684E+02  0.61400211898E+02  0.74470750000E+01 0.  1.
        -31    1    1    2    0    0 -0.20125778304E+00 -0.45350968401E+00  0.57273847416E+02  0.57758105055E+02  0.74470750000E+01 0.  1.
<mgrwt>
<rscale>  0 0.14934259E+02</rscale>
<asrwt>0</asrwt>
<pdfrwt beam="1">  1        2 0.98528434E+00 0.14934259E+02</pdfrwt>
<pdfrwt beam="2">  1       -2 0.99772343E+00 0.14934259E+02</pdfrwt>
<totfact>-0.21818354E-13</totfact>
</mgrwt>
</event>
<event>
 4    1  0.5245809E-019  0.1491076E+02  0.7818608E-02  0.1870804E+00
         -2   -1    0    0    0  501 -0.00000000000E+00  0.00000000000E+00  0.11869100359E+03  0.11869100362E+03  0.25500000000E-02 0. -1.
          2   -1    0    0  501    0  0.00000000000E+00 -0.00000000000E+00 -0.46829419062E+00  0.46830113332E+00  0.25500000000E-02 0.  1.
         31    1    1    2    0    0 -0.19086797820E+00 -0.65709981418E-01  0.61414351915E+02  0.61864547970E+02  0.74470750000E+01 0. -1.
        -31    1    1    2    0    0  0.19086797820E+00  0.65709981418E-01  0.56808357484E+02  0.57294756780E+02  0.74470750000E+01 0.  1.
<mgrwt>
<rscale>  0 0.14910764E+02</rscale>
<asrwt>0</asrwt>
<pdfrwt beam="2">  1        2 0.99457838E+00 0.14910764E+02</pdfrwt>
<pdfrwt beam="1">  1       -2 0.98529250E+00 0.14910764E+02</pdfrwt>
<totfact> 0.46412225E-13</totfact>
</mgrwt>
</event>
<event>
 4    1 -0.5245809E-019  0.1496260E+02  0.7818608E-02  0.1869212E+00
         -2   -1    0    0    0  501 -0.00000000000E+00  0.00000000000E+00  0.11940956719E+03  0.11940956722E+03  0.25500000000E-02 0.  1.
          2   -1    0    0  501    0  0.00000000000E+00 -0.00000000000E+00 -0.46871832438E+00  0.46872526080E+00  0.25500000000E-02 0. -1.
         31    1    1    2    0    0  0.38042721369E+00  0.57506037669E+00  0.57960357895E+02  0.58440888363E+02  0.74470750000E+01 0. -1.
        -31    1    1    2    0    0 -0.38042721369E+00 -0.57506037669E+00  0.60980490970E+02  0.61437404114E+02  0.74470750000E+01 0.  1.
<mgrwt>
<rscale>  0 0.14962603E+02</rscale>
<asrwt>0</asrwt>
<pdfrwt beam="2">  1        2 0.99549917E+00 0.14962603E+02</pdfrwt>
<pdfrwt beam="1">  1       -2 0.99123760E+00 0.14962603E+02</pdfrwt>
<totfact>-0.48901027E-14</totfact>
</mgrwt>
</event>
<event>
 4    1  0.5245809E-019  0.1493228E+02  0.7818608E-02  0.1870142E+00
         -2   -1    0    0    0  501 -0.00000000000E+00  0.00000000000E+00  0.11869059907E+03  0.11869059909E+03  0.25500000000E-02 0. -1.
          2   -1    0    0  501    0  0.00000000000E+00 -0.00000000000E+00 -0.46964798646E+00  0.46965490915E+00  0.25500000000E-02 0.  1.
         31    1    1    2    0    0 -0.38653859716E+00 -0.36725479260E+00  0.59103683020E+02  0.59573388025E+02  0.74470750000E+01 0.  1.
        -31    1    1    2    0    0  0.38653859716E+00  0.36725479260E+00  0.59117268059E+02  0.59586865977E+02  0.74470750000E+01 0.  1.
<mgrwt>
<rscale>  0 0.14932276E+02</rscale>
<asrwt>0</asrwt>
<pdfrwt beam="2">  1        2 0.99744223E+00 0.14932276E+02</pdfrwt>
<pdfrwt beam="1">  1       -2 0.98530035E+00 0.14932276E+02</pdfrwt>
<totfact> 0.29358530E-13</totfact>
</mgrwt>
</event>
<event>
 4    1 -0.5245809E-019  0.1490857E+02  0.7818608E-02  0.1870871E+00
         -2   -1    0    0    0  501 -0.00000000000E+00  0.00000000000E+00  0.11940811909E+03  0.11940811912E+03  0.25500000000E-02 0. -1.
          2   -1    0    0  501    0  0.00000000000E+00 -0.00000000000E+00 -0.46534494884E+00  0.46535193554E+00  0.25500000000E-02 0.  1.
         31    1    1    2    0    0 -0.23201493739E+00 -0.13035339435E+00  0.61010405431E+02  0.61463804957E+02  0.74470750000E+01 0. -1.
        -31    1    1    2    0    0  0.23201493739E+00  0.13035339435E+00  0.57932368709E+02  0.58409666095E+02  0.74470750000E+01 0.  1.
<mgrwt>
<rscale>  0 0.14908573E+02</rscale>
<asrwt>0</asrwt>
<pdfrwt beam="2">  1        2 0.98836242E+00 0.14908573E+02</pdfrwt>
<pdfrwt beam="1">  1       -2 0.99119773E+00 0.14908573E+02</pdfrwt>
<totfact>-0.89690555E-14</totfact>
</mgrwt>
</event>
<event>
 4    1  0.5245809E-019  0.1491159E+02  0.7818608E-02  0.1870779E+00
         -2   -1    0    0    0  501 -0.00000000000E+00  0.00000000000E+00  0.11871075219E+03  0.11871075222E+03  0.25500000000E-02 0.  1.
          2   -1    0    0  501    0  0.00000000000E+00 -0.00000000000E+00 -0.46826791361E+00  0.46827485669E+00  0.25500000000E-02 0. -1.
         31    1    1    2    0    0 -0.18133809494E+00  0.12520476830E-01  0.61608981772E+02  0.62057703803E+02  0.74470750000E+01 0.  1.
        -31    1    1    2    0    0  0.18133809494E+00 -0.12520476830E-01  0.56633502507E+02  0.57121323273E+02  0.74470750000E+01 0. -1.
<mgrwt>
<rscale>  0 0.14911586E+02</rscale>
<asrwt>0</asrwt>
<pdfrwt beam="2">  1        2 0.99452344E+00 0.14911586E+02</pdfrwt>
<pdfrwt beam="1">  1       -2 0.98545558E+00 0.14911586E+02</pdfrwt>
<totfact> 0.44419197E-13</totfact>
</mgrwt>
</event>
<event>
 4    1 -0.5245809E-019  0.1491515E+02  0.7818608E-02  0.1870669E+00
         -2   -1    0    0    0  501 -0.00000000000E+00  0.00000000000E+00  0.12032260425E+03  0.12032260427E+03  0.25500000000E-02 0.  1.
          2   -1    0    0  501    0  0.00000000000E+00 -0.00000000000E+00 -0.46221572117E+00  0.46222275517E+00  0.25500000000E-02 0. -1.
         31    1    1    2    0    0 -0.18863023164E+00  0.28999055131E+00  0.61484187005E+02  0.61934512621E+02  0.74470750000E+01 0. -1.
        -31    1    1    2    0    0  0.18863023164E+00 -0.28999055131E+00  0.58376201522E+02  0.58850314409E+02  0.74470750000E+01 0. -1.
<mgrwt>
<rscale>  0 0.14915150E+02</rscale>
<asrwt>0</asrwt>
<pdfrwt beam="2">  1        2 0.98177064E+00 0.14915150E+02</pdfrwt>
<pdfrwt beam="1">  1       -2 0.99873346E+00 0.14915150E+02</pdfrwt>
<totfact>-0.23993402E-13</totfact>
</mgrwt>
</event>
<event>
 4    1 -0.5245809E-019  0.1496297E+02  0.7818608E-02  0.1869201E+00
          2   -1    0    0  501    0  0.00000000000E+00  0.00000000000E+00  0.11903600068E+03  0.11903600071E+03  0.25500000000E-02 0. -1.
         -2   -1    0    0    0  501 -0.00000000000E+00 -0.00000000000E+00 -0.47021231017E+00  0.47021922455E+00  0.25500000000E-02 0.  1.
         31    1    1    2    0    0  0.69909180018E+00 -0.39626747186E-01  0.58061619399E+02  0.58541445770E+02  0.74470750000E+01 0.  1.
        -31    1    1    2    0    0 -0.69909180018E+00  0.39626747186E-01  0.60504168970E+02  0.60964774160E+02  0.74470750000E+01 0. -1.
<mgrwt>
<rscale>  0 0.14962969E+02</rscale>
<asrwt>0</asrwt>
<pdfrwt beam="1">  1        2 0.98816104E+00 0.14962969E+02</pdfrwt>
<pdfrwt beam="2">  1       -2 0.99864743E+00 0.14962969E+02</pdfrwt>
<totfact>-0.93335625E-14</totfact>
</mgrwt>
</event>
<event>
 4    1 -0.5245809E-019  0.1495204E+02  0.7818608E-02  0.1869536E+00
          2   -1    0    0  501    0  0.00000000000E+00  0.00000000000E+00  0.11881802625E+03  0.11881802627E+03  0.25500000000E-02 0. -1.
         -2   -1    0    0    0  501 -0.00000000000E+00 -0.00000000000E+00 -0.47038707151E+00  0.47039398332E+00  0.25500000000E-02 0.  1.
         31    1    1    2    0    0 -0.39211316511E+00 -0.27122531850E+00  0.62782829981E+02  0.63224757670E+02  0.74470750000E+01 0. -1.
        -31    1    1    2    0    0  0.39211316511E+00  0.27122531850E+00  0.55564809193E+02  0.56063662586E+02  0.74470750000E+01 0. -1.
<mgrwt>
<rscale>  0 0.14952040E+02</rscale>
<asrwt>0</asrwt>
<pdfrwt beam="1">  1        2 0.98636012E+00 0.14952040E+02</pdfrwt>
<pdfrwt beam="2">  1       -2 0.99900991E+00 0.14952040E+02</pdfrwt>
<totfact>-0.90380219E-14</totfact>
</mgrwt>
</event>
<event>
 4    1 -0.5245809E-019  0.1497792E+02  0.7818608E-02  0.1868743E+00
          2   -1    0    0  501    0  0.00000000000E+00  0.00000000000E+00  0.11975792757E+03  0.11975792760E+03  0.25500000000E-02 0. -1.
         -2   -1    0    0    0  501 -0.00000000000E+00 -0.00000000000E+00 -0.46831252987E+00  0.46831947230E+00  0.25500000000E-02 0.  1.
         31    1    1    2    0    0  0.60314511541E+00  0.36772086075E+00  0.62501167900E+02  0.62947231214E+02  0.74470750000E+01 0. -1.
        -31    1    1    2    0    0 -0.60314511541E+00 -0.36772086075E+00  0.56788447143E+02  0.57279015858E+02  0.74470750000E+01 0.  1.
<mgrwt>
<rscale>  0 0.14977925E+02</rscale>
<asrwt>0</asrwt>
<pdfrwt beam="1">  1        2 0.99411473E+00 0.14977925E+02</pdfrwt>
<pdfrwt beam="2">  1       -2 0.99465200E+00 0.14977925E+02</pdfrwt>
<totfact>-0.12967142E-13</totfact>
</mgrwt>
</event>
<event>
 4    1 -0.5245809E-019  0.1494034E+02  0.7818608E-02  0.1869895E+00
         -2   -1    0    0    0  501 -0.00000000000E+00  0.00000000000E+00  0.11998582322E+03  0.11998582325E+03  0.25500000000E-02 0.  1.
          2   -1    0    0  501    0  0.00000000000E+00 -0.00000000000E+00 -0.46507994222E+00  0.46508693290E+00  0.25500000000E-02 0. -1.
         31    1    1    2    0    0 -0.46940109649E+00 -0.26752064013E+00  0.61609248712E+02  0.62060054444E+02  0.74470750000E+01 0.  1.
        -31    1    1    2    0    0  0.46940109649E+00  0.26752064013E+00  0.57911494567E+02  0.58390855738E+02  0.74470750000E+01 0.  1.
<mgrwt>
<rscale>  0 0.14940338E+02</rscale>
<asrwt>0</asrwt>
<pdfrwt beam="2">  1        2 0.98782021E+00 0.14940338E+02</pdfrwt>
<pdfrwt beam="1">  1       -2 0.99597240E+00 0.14940338E+02</pdfrwt>
<totfact>-0.21500906E-13</totfact>
</mgrwt>
</event>
<event>
 4    1 -0.5245809E-019  0.1491516E+02  0.7818608E-02  0.1870668E+00
         -2   -1    0    0    0  501 -0.00000000000E+00  0.00000000000E+00  0.11957606386E+03  0.11957606389E+03  0.25500000000E-02 0.  1.
          2   -1    0    0  501    0  0.00000000000E+00 -0.00000000000E+00 -0.46510223374E+00  0.46510922409E+00  0.25500000000E-02 0. -1.
         31    1    1    2    0    0  0.13920023370E+00  0.18200809515E+00  0.56958921858E+02  0.57444148605E+02  0.74470750000E+01 0. -1.
        -31    1    1    2    0    0 -0.13920023370E+00 -0.18200809515E+00  0.62152039769E+02  0.62597024507E+02  0.74470750000E+01 0.  1.
<mgrwt>
<rscale>  0 0.14915162E+02</rscale>
<asrwt>0</asrwt>
<pdfrwt beam="2">  1        2 0.98785430E+00 0.14915162E+02</pdfrwt>
<pdfrwt beam="1">  1       -2 0.99258441E+00 0.14915162E+02</pdfrwt>
<totfact>-0.18058453E-13</totfact>
</mgrwt>
</event>
<event>
 4    1 -0.5245809E-019  0.1498236E+02  0.7818608E-02  0.1868607E+00
          2   -1    0    0  501    0  0.00000000000E+00  0.00000000000E+00  0.11966839089E+03  0.11966839091E+03  0.25500000000E-02 0. -1.
         -2   -1    0    0    0  501 -0.00000000000E+00 -0.00000000000E+00 -0.46894036229E+00  0.46894729542E+00  0.25500000000E-02 0.  1.
         31    1    1    2    0    0 -0.22783415149E+00  0.59496785178E+00  0.55566961993E+02  0.56067388795E+02  0.74470750000E+01 0.  1.
        -31    1    1    2    0    0  0.22783415149E+00 -0.59496785178E+00  0.63632488532E+02  0.64069949415E+02  0.74470750000E+01 0. -1.
<mgrwt>
<rscale>  0 0.14982357E+02</rscale>
<asrwt>0</asrwt>
<pdfrwt beam="1">  1        2 0.99337957E+00 0.14982357E+02</pdfrwt>
<pdfrwt beam="2">  1       -2 0.99597733E+00 0.14982357E+02</pdfrwt>
<totfact>-0.12889607E-13</totfact>
</mgrwt>
</event>
<event>
 4    1  0.5245809E-019  0.1490626E+02  0.7818608E-02  0.1870943E+00
         -2   -1    0    0    0  501 -0.00000000000E+00  0.00000000000E+00  0.11848870244E+03  0.11848870247E+03  0.25500000000E-02 0.  1.
          2   -1    0    0  501    0  0.00000000000E+00 -0.00000000000E+00 -0.46881046581E+00  0.46881740086E+00  0.25500000000E-02 0. -1.
         31    1    1    2    0    0  0.21307023100E+00  0.64010180516E-01  0.57399261983E+02  0.57880771405E+02  0.74470750000E+01 0. -1.
        -31    1    1    2    0    0 -0.21307023100E+00 -0.64010180516E-01  0.60620629992E+02  0.61076748464E+02  0.74470750000E+01 0.  1.
<mgrwt>
<rscale>  0 0.14906261E+02</rscale>
<asrwt>0</asrwt>
<pdfrwt beam="2">  1        2 0.99566384E+00 0.14906261E+02</pdfrwt>
<pdfrwt beam="1">  1       -2 0.98362400E+00 0.14906261E+02</pdfrwt>
<totfact> 0.64015308E-13</totfact>
</mgrwt>
</event>
<event>
 4    1 -0.5245809E-019  0.1499632E+02  0.7818608E-02  0.1868181E+00
          2   -1    0    0  501    0  0.00000000000E+00  0.00000000000E+00  0.12002227360E+03  0.12002227363E+03  0.25500000000E-02 0. -1.
         -2   -1    0    0    0  501 -0.00000000000E+00 -0.00000000000E+00 -0.46842933353E+00  0.46843627422E+00  0.25500000000E-02 0.  1.
         31    1    1    2    0    0  0.30734496405E+00  0.77835732584E+00  0.61795952877E+02  0.62248686886E+02  0.74470750000E+01 0. -1.
        -31    1    1    2    0    0 -0.30734496405E+00 -0.77835732584E+00  0.57757891392E+02  0.58242023017E+02  0.74470750000E+01 0.  1.
<mgrwt>
<rscale>  0 0.14996316E+02</rscale>
<asrwt>0</asrwt>
<pdfrwt beam="1">  1        2 0.99630149E+00 0.14996316E+02</pdfrwt>
<pdfrwt beam="2">  1       -2 0.99490765E+00 0.14996316E+02</pdfrwt>
<totfact>-0.10087019E-13</totfact>
</mgrwt>
</event>
<event>
 4    1  0.5245809E-019  0.1490688E+02  0.7818608E-02  0.1870923E+00
          2   -1    0    0  501    0  0.00000000000E+00  0.00000000000E+00  0.11942881889E+03  0.11942881892E+03  0.25500000000E-02 0.  1.
         -2   -1    0    0    0  501 -0.00000000000E+00 -0.00000000000E+00 -0.46515865668E+00  0.46516564618E+00  0.25500000000E-02 0. -1.
         31    1    1    2    0    0 -0.28263942846E+00 -0.12150252913E+00  0.59369336338E+02  0.59835371405E+02  0.74470750000E+01 0.  1.
        -31    1    1    2    0    0  0.28263942846E+00  0.12150252913E+00  0.59594323900E+02  0.60058613163E+02  0.74470750000E+01 0.  1.
<mgrwt>
<rscale>  0 0.14906880E+02</rscale>
<asrwt>0</asrwt>
<pdfrwt beam="1">  1        2 0.99136735E+00 0.14906880E+02</pdfrwt>
<pdfrwt beam="2">  1       -2 0.98796895E+00 0.14906880E+02</pdfrwt>
<totfact> 0.20494695E-13</totfact>
</mgrwt>
</event>
<event>
 4    1 -0.5245809E-019  0.1500557E+02  0.7818608E-02  0.1867899E+00
          2   -1    0    0  501    0  0.00000000000E+00  0.00000000000E+00  0.11987481493E+03  0.11987481496E+03  0.25500000000E-02 0.  1.
         -2   -1    0    0    0  501 -0.00000000000E+00 -0.00000000000E+00 -0.46958463523E+00  0.46959155885E+00  0.25500000000E-02 0. -1.
         31    1    1    2    0    0  0.58727796661E+00  0.28305233000E+00  0.64824423208E+02  0.65254040368E+02  0.74470750000E+01 0.  1.
        -31    1    1    2    0    0 -0.58727796661E+00 -0.28305233000E+00  0.54580807090E+02  0.55090366152E+02  0.74470750000E+01 0. -1.
<mgrwt>
<rscale>  0 0.15005571E+02</rscale>
<asrwt>0</asrwt>
<pdfrwt beam="1">  1        2 0.99509175E+00 0.15005571E+02</pdfrwt>
<pdfrwt beam="2">  1       -2 0.99734704E+00 0.15005571E+02</pdfrwt>
<totfact>-0.87075758E-14</totfact>
</mgrwt>
</event>
<event>
 4    1  0.5245809E-019  0.1492023E+02  0.7818608E-02  0.1870512E+00
          2   -1    0    0  501    0  0.00000000000E+00  0.00000000000E+00  0.11951610175E+03  0.11951610177E+03  0.25500000000E-02 0.  1.
         -2   -1    0    0    0  501 -0.00000000000E+00 -0.00000000000E+00 -0.46565212174E+00  0.46565910384E+00  0.25500000000E-02 0. -1.
         31    1    1    2    0    0 -0.26864629075E-01  0.15407767014E+00  0.62840441226E+02  0.63280363788E+02  0.74470750000E+01 0.  1.
        -31    1    1    2    0    0  0.26864629075E-01 -0.15407767014E+00  0.56210008400E+02  0.56701397090E+02  0.74470750000E+01 0. -1.
<mgrwt>
<rscale>  0 0.14920234E+02</rscale>
<asrwt>0</asrwt>
<pdfrwt beam="1">  1        2 0.99209315E+00 0.14920234E+02</pdfrwt>
<pdfrwt beam="2">  1       -2 0.98901576E+00 0.14920234E+02</pdfrwt>
<totfact> 0.89876220E-14</totfact>
</mgrwt>
</event>
<event>
 4    1 -0.5245809E-019  0.1490598E+02  0.7818608E-02  0.1870951E+00
         -2   -1    0    0    0  501 -0.00000000000E+00  0.00000000000E+00  0.11990841522E+03  0.11990841525E+03  0.25500000000E-02 0.  1.
          2   -1    0    0  501    0  0.00000000000E+00 -0.00000000000E+00 -0.46324218870E+00  0.46324920712E+00  0.25500000000E-02 0. -1.
         31    1    1    2    0    0 -0.24610317922E+00  0.79028210859E-01  0.60901772812E+02  0.61355942417E+02  0.74470750000E+01 0.  1.
        -31    1    1    2    0    0  0.24610317922E+00 -0.79028210859E-01  0.58543400222E+02  0.59015722039E+02  0.74470750000E+01 0. -1.
<mgrwt>
<rscale>  0 0.14905980E+02</rscale>
<asrwt>0</asrwt>
<pdfrwt beam="2">  1        2 0.98392948E+00 0.14905980E+02</pdfrwt>
<pdfrwt beam="1">  1       -2 0.99531714E+00 0.14905980E+02</pdfrwt>
<totfact>-0.40962349E-13</totfact>
</mgrwt>
</event>
<event>
 4    1 -0.5245809E-019  0.1490762E+02  0.7818608E-02  0.1870901E+00
          2   -1    0    0  501    0  0.00000000000E+00  0.00000000000E+00  0.11907248782E+03  0.11907248785E+03  0.25500000000E-02 0. -1.
         -2   -1    0    0    0  501 -0.00000000000E+00 -0.00000000000E+00 -0.46659687582E+00  0.46660384377E+00  0.25500000000E-02 0.  1.
         31    1    1    2    0    0 -0.24009799646E+00 -0.19744484621E+00  0.59791448567E+02  0.60254235365E+02  0.74470750000E+01 0. -1.
        -31    1    1    2    0    0  0.24009799646E+00  0.19744484621E+00  0.58814442375E+02  0.59284856325E+02  0.74470750000E+01 0.  1.
<mgrwt>
<rscale>  0 0.14907618E+02</rscale>
<asrwt>0</asrwt>
<pdfrwt beam="1">  1        2 0.98843285E+00 0.14907618E+02</pdfrwt>
<pdfrwt beam="2">  1       -2 0.99100017E+00 0.14907618E+02</pdfrwt>
<totfact>-0.74160827E-14</totfact>
</mgrwt>
</event>
<event>
 4    1  0.5245809E-019  0.1494945E+02  0.7818608E-02  0.1869615E+00
          2   -1    0    0  501    0  0.00000000000E+00  0.00000000000E+00  0.12023643456E+03  0.12023643459E+03  0.25500000000E-02 0.  1.
         -2   -1    0    0    0  501 -0.00000000000E+00 -0.00000000000E+00 -0.46467684720E+00  0.46468384394E+00  0.25500000000E-02 0. -1.
         31    1    1    2    0    0  0.21965091985E+00 -0.14559454170E+00  0.64615455967E+02  0.65043720068E+02  0.74470750000E+01 0.  1.
        -31    1    1    2    0    0 -0.21965091985E+00  0.14559454170E+00  0.55156301744E+02  0.55657398362E+02  0.74470750000E+01 0. -1.
<mgrwt>
<rscale>  0 0.14949450E+02</rscale>
<asrwt>0</asrwt>
<pdfrwt beam="1">  1        2 0.99804130E+00 0.14949450E+02</pdfrwt>
<pdfrwt beam="2">  1       -2 0.98697529E+00 0.14949450E+02</pdfrwt>
<totfact> 0.13417590E-13</totfact>
</mgrwt>
</event>
<event>
 4    1 -0.5245809E-019  0.1492260E+02  0.7818608E-02  0.1870439E+00
          2   -1    0    0  501    0  0.00000000000E+00  0.00000000000E+00  0.11892267560E+03  0.11892267563E+03  0.25500000000E-02 0. -1.
         -2   -1    0    0    0  501 -0.00000000000E+00 -0.00000000000E+00 -0.46812450135E+00  0.46813144656E+00  0.25500000000E-02 0.  1.
         31    1    1    2    0    0 -0.35781993120E+00 -0.10797424392E+00  0.57074295239E+02  0.57559306777E+02  0.74470750000E+01 0.  1.
        -31    1    1    2    0    0  0.35781993120E+00  0.10797424392E+00  0.61380255860E+02  0.61831500297E+02  0.74470750000E+01 0.  1.
<mgrwt>
<rscale>  0 0.14922605E+02</rscale>
<asrwt>0</asrwt>
<pdfrwt beam="1">  1        2 0.98720673E+00 0.14922605E+02</pdfrwt>
<pdfrwt beam="2">  1       -2 0.99422702E+00 0.14922605E+02</pdfrwt>
<totfact>-0.24598520E-13</totfact>
</mgrwt>
</event>
<event>
 4    1 -0.5245809E-019  0.1494169E+02  0.7818608E-02  0.1869853E+00
          2   -1    0    0  501    0  0.00000000000E+00  0.00000000000E+00  0.11913614530E+03  0.11913614533E+03  0.25500000000E-02 0. -1.
         -2   -1    0    0    0  501 -0.00000000000E+00 -0.00000000000E+00 -0.46848160810E+00  0.46848854802E+00  0.25500000000E-02 0.  1.
         31    1    1    2    0    0  0.92996321587E-02 -0.56096259387E-01  0.64078638110E+02  0.64509952886E+02  0.74470750000E+01 0. -1.
        -31    1    1    2    0    0 -0.92996321587E-02  0.56096259387E-01  0.54589025584E+02  0.55094680992E+02  0.74470750000E+01 0.  1.
<mgrwt>
<rscale>  0 0.14941688E+02</rscale>
<asrwt>0</asrwt>
<pdfrwt beam="1">  1        2 0.98897480E+00 0.14941688E+02</pdfrwt>
<pdfrwt beam="2">  1       -2 0.99498947E+00 0.14941688E+02</pdfrwt>
<totfact>-0.19860235E-13</totfact>
</mgrwt>
</event>
<event>
 4    1  0.5245809E-019  0.1490641E+02  0.7818608E-02  0.1870938E+00
         -2   -1    0    0    0  501 -0.00000000000E+00  0.00000000000E+00  0.11874844233E+03  0.11874844235E+03  0.25500000000E-02 0. -1.
          2   -1    0    0  501    0  0.00000000000E+00 -0.00000000000E+00 -0.46779424905E+00  0.46780119917E+00  0.25500000000E-02 0.  1.
         31    1    1    2    0    0  0.17332073477E+00 -0.10442992054E+00  0.57345166322E+02  0.57827052252E+02  0.74470750000E+01 0. -1.
        -31    1    1    2    0    0 -0.17332073477E+00  0.10442992054E+00  0.60935481757E+02  0.61389191302E+02  0.74470750000E+01 0. -1.
<mgrwt>
<rscale>  0 0.14906409E+02</rscale>
<asrwt>0</asrwt>
<pdfrwt beam="2">  1        2 0.99352266E+00 0.14906409E+02</pdfrwt>
<pdfrwt beam="1">  1       -2 0.98576331E+00 0.14906409E+02</pdfrwt>
<totfact> 0.43794357E-13</totfact>
</mgrwt>
</event>
<event>
 4    1 -0.5245809E-019  0.1491795E+02  0.7818608E-02  0.1870583E+00
          2   -1    0    0  501    0  0.00000000000E+00  0.00000000000E+00  0.11890861874E+03  0.11890861877E+03  0.25500000000E-02 0.  1.
         -2   -1    0    0    0  501 -0.00000000000E+00 -0.00000000000E+00 -0.46788804134E+00  0.46789499007E+00  0.25500000000E-02 0. -1.
         31    1    1    2    0    0 -0.29572704764E+00 -0.13547609611E+00  0.61361651094E+02  0.61812757254E+02  0.74470750000E+01 0.  1.
        -31    1    1    2    0    0  0.29572704764E+00  0.13547609611E+00  0.57079079609E+02  0.57563756508E+02  0.74470750000E+01 0. -1.
<mgrwt>
<rscale>  0 0.14917954E+02</rscale>
<asrwt>0</asrwt>
<pdfrwt beam="1">  1        2 0.98708854E+00 0.14917954E+02</pdfrwt>
<pdfrwt beam="2">  1       -2 0.99372633E+00 0.14917954E+02</pdfrwt>
<totfact>-0.24163610E-13</totfact>
</mgrwt>
</event>
<event>
 4    1 -0.5245809E-019  0.1493469E+02  0.7818608E-02  0.1870068E+00
          2   -1    0    0  501    0  0.00000000000E+00  0.00000000000E+00  0.11901429972E+03  0.11901429975E+03  0.25500000000E-02 0.  1.
         -2   -1    0    0    0  501 -0.00000000000E+00 -0.00000000000E+00 -0.46852223290E+00  0.46852917222E+00  0.25500000000E-02 0. -1.
         31    1    1    2    0    0 -0.48493694114E+00  0.10892326336E+00  0.57391402115E+02  0.57874683505E+02  0.74470750000E+01 0. -1.
        -31    1    1    2    0    0  0.48493694114E+00 -0.10892326336E+00  0.61154375373E+02  0.61608145415E+02  0.74470750000E+01 0. -1.
<mgrwt>
<rscale>  0 0.14934693E+02</rscale>
<asrwt>0</asrwt>
<pdfrwt beam="1">  1        2 0.98796763E+00 0.14934693E+02</pdfrwt>
<pdfrwt beam="2">  1       -2 0.99507142E+00 0.14934693E+02</pdfrwt>
<totfact>-0.22372396E-13</totfact>
</mgrwt>
</event>
<event>
 4    1  0.5245809E-019  0.1494589E+02  0.7818608E-02  0.1869724E+00
          2   -1    0    0  501    0  0.00000000000E+00  0.00000000000E+00  0.12031771539E+03  0.12031771541E+03  0.25500000000E-02 0. -1.
         -2   -1    0    0    0  501 -0.00000000000E+00 -0.00000000000E+00 -0.46414184073E+00  0.46414884554E+00  0.25500000000E-02 0.  1.
         31    1    1    2    0    0  0.62637117419E-01 -0.35260282721E+00  0.64029435998E+02  0.64462049708E+02  0.74470750000E+01 0.  1.
        -31    1    1    2    0    0 -0.62637117419E-01  0.35260282721E+00  0.55824137549E+02  0.56319814553E+02  0.74470750000E+01 0.  1.
<mgrwt>
<rscale>  0 0.14945890E+02</rscale>
<asrwt>0</asrwt>
<pdfrwt beam="1">  1        2 0.99870896E+00 0.14945890E+02</pdfrwt>
<pdfrwt beam="2">  1       -2 0.98584589E+00 0.14945890E+02</pdfrwt>
<totfact> 0.14391870E-13</totfact>
</mgrwt>
</event>
<event>
 4    1  0.5245809E-019  0.1492811E+02  0.7818608E-02  0.1870270E+00
          2   -1    0    0  501    0  0.00000000000E+00  0.00000000000E+00  0.11974674423E+03  0.11974674426E+03  0.25500000000E-02 0. -1.
         -2   -1    0    0    0  501 -0.00000000000E+00 -0.00000000000E+00 -0.46524607325E+00  0.46525306144E+00  0.25500000000E-02 0.  1.
         31    1    1    2    0    0  0.23801031717E+00  0.18743960341E+00  0.62876057990E+02  0.63316264711E+02  0.74470750000E+01 0. -1.
        -31    1    1    2    0    0 -0.23801031717E+00 -0.18743960341E+00  0.56405440170E+02  0.56895732611E+02  0.74470750000E+01 0.  1.
<mgrwt>
<rscale>  0 0.14928111E+02</rscale>
<asrwt>0</asrwt>
<pdfrwt beam="1">  1        2 0.99399690E+00 0.14928111E+02</pdfrwt>
<pdfrwt beam="2">  1       -2 0.98816408E+00 0.14928111E+02</pdfrwt>
<totfact> 0.15038477E-13</totfact>
</mgrwt>
</event>
<event>
 4    1 -0.5245809E-019  0.1494611E+02  0.7818608E-02  0.1869717E+00
          2   -1    0    0  501    0  0.00000000000E+00  0.00000000000E+00  0.11890695327E+03  0.11890695330E+03  0.25500000000E-02 0.  1.
         -2   -1    0    0    0  501 -0.00000000000E+00 -0.00000000000E+00 -0.46966265623E+00  0.46966957870E+00  0.25500000000E-02 0. -1.
         31    1    1    2    0    0  0.24209062316E+00  0.47074828193E+00  0.61836580068E+02  0.62285646600E+02  0.74470750000E+01 0.  1.
        -31    1    1    2    0    0 -0.24209062316E+00 -0.47074828193E+00  0.56600710546E+02  0.57090976276E+02  0.74470750000E+01 0. -1.
<mgrwt>
<rscale>  0 0.14946113E+02</rscale>
<asrwt>0</asrwt>
<pdfrwt beam="1">  1        2 0.98708944E+00 0.14946113E+02</pdfrwt>
<pdfrwt beam="2">  1       -2 0.99748041E+00 0.14946113E+02</pdfrwt>
<totfact>-0.17910998E-13</totfact>
</mgrwt>
</event>
<event>
 4    1  0.5245809E-019  0.1492781E+02  0.7818608E-02  0.1870279E+00
          2   -1    0    0  501    0  0.00000000000E+00  0.00000000000E+00  0.12038726199E+03  0.12038726202E+03  0.25500000000E-02 0. -1.
         -2   -1    0    0    0  501 -0.00000000000E+00 -0.00000000000E+00 -0.46275222784E+00  0.46275925369E+00  0.25500000000E-02 0.  1.
         31    1    1    2    0    0  0.47149063672E+00 -0.24403568612E-01  0.61318721993E+02  0.61771089450E+02  0.74470750000E+01 0. -1.
        -31    1    1    2    0    0 -0.47149063672E+00  0.24403568612E-01  0.58605787774E+02  0.59078931825E+02  0.74470750000E+01 0.  1.
<mgrwt>
<rscale>  0 0.14927813E+02</rscale>
<asrwt>0</asrwt>
<pdfrwt beam="1">  1        2 0.99927253E+00 0.14927813E+02</pdfrwt>
<pdfrwt beam="2">  1       -2 0.98290785E+00 0.14927813E+02</pdfrwt>
<totfact> 0.18691492E-13</totfact>
</mgrwt>
</event>
<event>
 4    1 -0.5245809E-019  0.1493579E+02  0.7818608E-02  0.1870034E+00
         -2   -1    0    0    0  501 -0.00000000000E+00  0.00000000000E+00  0.12012114931E+03  0.12012114933E+03  0.25500000000E-02 0.  1.
          2   -1    0    0  501    0  0.00000000000E+00 -0.00000000000E+00 -0.46427346643E+00  0.46428046926E+00  0.25500000000E-02 0. -1.
         31    1    1    2    0    0  0.50466890082E+00 -0.18248206964E+00  0.58615523694E+02  0.59089140579E+02  0.74470750000E+01 0. -1.
        -31    1    1    2    0    0 -0.50466890082E+00  0.18248206964E+00  0.61041352145E+02  0.61496289223E+02  0.74470750000E+01 0. -1.
<mgrwt>
<rscale>  0 0.14935794E+02</rscale>
<asrwt>0</asrwt>
<pdfrwt beam="2">  1        2 0.98611818E+00 0.14935794E+02</pdfrwt>
<pdfrwt beam="1">  1       -2 0.99708470E+00 0.14935794E+02</pdfrwt>
<totfact>-0.22876693E-13</totfact>
</mgrwt>
</event>
<event>
 4    1  0.5245809E-019  0.1493627E+02  0.7818608E-02  0.1870020E+00
         -2   -1    0    0    0  501 -0.00000000000E+00  0.00000000000E+00  0.11867014208E+03  0.11867014211E+03  0.25500000000E-02 0. -1.
          2   -1    0    0  501    0  0.00000000000E+00 -0.00000000000E+00 -0.46998021693E+00  0.46998713472E+00  0.25500000000E-02 0.  1.
         31    1    1    2    0    0  0.53486641133E+00 -0.99047205384E-01  0.58023558920E+02  0.58502035932E+02  0.74470750000E+01 0. -1.
        -31    1    1    2    0    0 -0.53486641133E+00  0.99047205384E-01  0.60176602945E+02  0.60638093312E+02  0.74470750000E+01 0. -1.
<mgrwt>
<rscale>  0 0.14936269E+02</rscale>
<asrwt>0</asrwt>
<pdfrwt beam="2">  1        2 0.99814435E+00 0.14936269E+02</pdfrwt>
<pdfrwt beam="1">  1       -2 0.98513395E+00 0.14936269E+02</pdfrwt>
<totfact> 0.24161644E-13</totfact>
</mgrwt>
</event>
<event>
 4    1  0.5245809E-019  0.1493627E+02  0.7818608E-02  0.1870019E+00
          2   -1    0    0  501    0  0.00000000000E+00  0.00000000000E+00  0.12001182051E+03  0.12001182053E+03  0.25500000000E-02 0. -1.
         -2   -1    0    0    0  501 -0.00000000000E+00 -0.00000000000E+00 -0.46472618403E+00  0.46473318004E+00  0.25500000000E-02 0.  1.
         31    1    1    2    0    0 -0.17939690762E-01 -0.40807914389E+00  0.56678016592E+02  0.57166627864E+02  0.74470750000E+01 0.  1.
        -31    1    1    2    0    0  0.17939690762E-01  0.40807914389E+00  0.62869077731E+02  0.63309925851E+02  0.74470750000E+01 0. -1.
<mgrwt>
<rscale>  0 0.14936272E+02</rscale>
<asrwt>0</asrwt>
<pdfrwt beam="1">  1        2 0.99618444E+00 0.14936272E+02</pdfrwt>
<pdfrwt beam="2">  1       -2 0.98707257E+00 0.14936272E+02</pdfrwt>
<totfact> 0.20510437E-13</totfact>
</mgrwt>
</event>
<event>
 4    1 -0.5245809E-019  0.1493947E+02  0.7818608E-02  0.1869921E+00
         -2   -1    0    0    0  501 -0.00000000000E+00  0.00000000000E+00  0.11969051111E+03  0.11969051113E+03  0.25500000000E-02 0. -1.
          2   -1    0    0  501    0  0.00000000000E+00 -0.00000000000E+00 -0.46617313762E+00  0.46618011191E+00  0.25500000000E-02 0.  1.
         31    1    1    2    0    0 -0.20750897578E+00 -0.51430328486E+00  0.58209198881E+02  0.58686261836E+02  0.74470750000E+01 0.  1.
        -31    1    1    2    0    0  0.20750897578E+00  0.51430328486E+00  0.61015139086E+02  0.61470429408E+02  0.74470750000E+01 0. -1.
<mgrwt>
<rscale>  0 0.14939467E+02</rscale>
<asrwt>0</asrwt>
<pdfrwt beam="2">  1        2 0.99012366E+00 0.14939467E+02</pdfrwt>
<pdfrwt beam="1">  1       -2 0.99353959E+00 0.14939467E+02</pdfrwt>
<totfact>-0.16574994E-13</totfact>
</mgrwt>
</event>
<event>
 4    1 -0.5245809E-019  0.1495817E+02  0.7818608E-02  0.1869348E+00
         -2   -1    0    0    0  501 -0.00000000000E+00  0.00000000000E+00  0.12017187406E+03  0.12017187408E+03  0.25500000000E-02 0.  1.
          2   -1    0    0  501    0  0.00000000000E+00 -0.00000000000E+00 -0.46546888973E+00  0.46547587457E+00  0.25500000000E-02 0. -1.
         31    1    1    2    0    0  0.31894996816E+00 -0.23818610425E+00  0.64410481121E+02  0.64840785513E+02  0.74470750000E+01 0.  1.
        -31    1    1    2    0    0 -0.31894996816E+00  0.23818610425E+00  0.55295924047E+02  0.55796564446E+02  0.74470750000E+01 0. -1.
<mgrwt>
<rscale>  0 0.14958167E+02</rscale>
<asrwt>0</asrwt>
<pdfrwt beam="2">  1        2 0.98864903E+00 0.14958167E+02</pdfrwt>
<pdfrwt beam="1">  1       -2 0.99751402E+00 0.14958167E+02</pdfrwt>
<totfact>-0.14491758E-13</totfact>
</mgrwt>
</event>
<event>
 4    1 -0.5245809E-019  0.1491603E+02  0.7818608E-02  0.1870642E+00
         -2   -1    0    0    0  501 -0.00000000000E+00  0.00000000000E+00  0.11985871221E+03  0.11985871224E+03  0.25500000000E-02 0.  1.
          2   -1    0    0  501    0  0.00000000000E+00 -0.00000000000E+00 -0.46405925743E+00  0.46406626349E+00  0.25500000000E-02 0. -1.
         31    1    1    2    0    0 -0.21755061130E-01 -0.75019028083E-02  0.62949233034E+02  0.63388211800E+02  0.74470750000E+01 0.  1.
        -31    1    1    2    0    0  0.21755061130E-01  0.75019028083E-02  0.56445419917E+02  0.56934566700E+02  0.74470750000E+01 0. -1.
<mgrwt>
<rscale>  0 0.14916027E+02</rscale>
<asrwt>0</asrwt>
<pdfrwt beam="2">  1        2 0.98565665E+00 0.14916027E+02</pdfrwt>
<pdfrwt beam="1">  1       -2 0.99491292E+00 0.14916027E+02</pdfrwt>
<totfact>-0.31306890E-13</totfact>
</mgrwt>
</event>
<event>
 4    1 -0.5245809E-019  0.1497939E+02  0.7818608E-02  0.1868698E+00
         -2   -1    0    0    0  501 -0.00000000000E+00  0.00000000000E+00  0.12012895121E+03  0.12012895124E+03  0.25500000000E-02 0.  1.
          2   -1    0    0  501    0  0.00000000000E+00 -0.00000000000E+00 -0.46695776319E+00  0.46696472576E+00  0.25500000000E-02 0. -1.
         31    1    1    2    0    0 -0.19323261672E+00 -0.34453150896E+00  0.65412236020E+02  0.65835974877E+02  0.74470750000E+01 0.  1.
        -31    1    1    2    0    0  0.19323261672E+00  0.34453150896E+00  0.54249757426E+02  0.54759941085E+02  0.74470750000E+01 0. -1.
<mgrwt>
<rscale>  0 0.14979395E+02</rscale>
<asrwt>0</asrwt>
<pdfrwt beam="2">  1        2 0.99179772E+00 0.14979395E+02</pdfrwt>
<pdfrwt beam="1">  1       -2 0.99717141E+00 0.14979395E+02</pdfrwt>
<totfact>-0.11836934E-13</totfact>
</mgrwt>
</event>
<event>
 4    1 -0.5245809E-019  0.1498724E+02  0.7818608E-02  0.1868458E+00
          2   -1    0    0  501    0  0.00000000000E+00  0.00000000000E+00  0.11983201500E+03  0.11983201503E+03  0.25500000000E-02 0.  1.
         -2   -1    0    0    0  501 -0.00000000000E+00 -0.00000000000E+00 -0.46860528998E+00  0.46861222807E+00  0.25500000000E-02 0. -1.
         31    1    1    2    0    0 -0.20086158652E+00  0.80288402094E-01  0.53217121170E+02  0.53736093115E+02  0.74470750000E+01 0. -1.
        -31    1    1    2    0    0  0.20086158652E+00 -0.80288402094E-01  0.66146288541E+02  0.66564534141E+02  0.74470750000E+01 0.  1.
<mgrwt>
<rscale>  0 0.14987239E+02</rscale>
<asrwt>0</asrwt>
<pdfrwt beam="1">  1        2 0.99472976E+00 0.14987239E+02</pdfrwt>
<pdfrwt beam="2">  1       -2 0.99527376E+00 0.14987239E+02</pdfrwt>
<totfact>-0.12142931E-13</totfact>
</mgrwt>
</event>
<event>
 4    1 -0.5245809E-019  0.1501653E+02  0.7818608E-02  0.1867565E+00
         -2   -1    0    0    0  501 -0.00000000000E+00  0.00000000000E+00  0.12005816444E+03  0.12005816447E+03  0.25500000000E-02 0. -1.
          2   -1    0    0  501    0  0.00000000000E+00 -0.00000000000E+00 -0.46955232494E+00  0.46955924903E+00  0.25500000000E-02 0.  1.
         31    1    1    2    0    0  0.11783662793E+00  0.85871233164E+00  0.63042849646E+02  0.63487093884E+02  0.74470750000E+01 0. -1.
        -31    1    1    2    0    0 -0.11783662793E+00 -0.85871233164E+00  0.56545762470E+02  0.57040629833E+02  0.74470750000E+01 0.  1.
<mgrwt>
<rscale>  0 0.15016525E+02</rscale>
<asrwt>0</asrwt>
<pdfrwt beam="2">  1        2 0.99728463E+00 0.15016525E+02</pdfrwt>
<pdfrwt beam="1">  1       -2 0.99660755E+00 0.15016525E+02</pdfrwt>
<totfact>-0.71004917E-14</totfact>
</mgrwt>
</event>
<event>
 4    1 -0.5245809E-019  0.1491733E+02  0.7818608E-02  0.1870602E+00
          2   -1    0    0  501    0  0.00000000000E+00  0.00000000000E+00  0.11924500068E+03  0.11924500071E+03  0.25500000000E-02 0. -1.
         -2   -1    0    0    0  501 -0.00000000000E+00 -0.00000000000E+00 -0.46652925733E+00  0.46653622629E+00  0.25500000000E-02 0.  1.
         31    1    1    2    0    0  0.54313190358E-01  0.41163543142E+00  0.59545808991E+02  0.60011121370E+02  0.74470750000E+01 0. -1.
        -31    1    1    2    0    0 -0.54313190358E-01 -0.41163543142E+00  0.59232662436E+02  0.59700415567E+02  0.74470750000E+01 0.  1.
<mgrwt>
<rscale>  0 0.14917332E+02</rscale>
<asrwt>0</asrwt>
<pdfrwt beam="1">  1        2 0.98985875E+00 0.14917332E+02</pdfrwt>
<pdfrwt beam="2">  1       -2 0.99086271E+00 0.14917332E+02</pdfrwt>
<totfact>-0.54198260E-14</totfact>
</mgrwt>
</event>
<event>
 4    1 -0.5245809E-019  0.1499953E+02  0.7818608E-02  0.1868083E+00
         -2   -1    0    0    0  501 -0.00000000000E+00  0.00000000000E+00  0.11982442376E+03  0.11982442378E+03  0.25500000000E-02 0.  1.
          2   -1    0    0  501    0  0.00000000000E+00 -0.00000000000E+00 -0.46940415632E+00  0.46941108261E+00  0.25500000000E-02 0. -1.
         31    1    1    2    0    0 -0.44847078260E+00  0.73952428099E+00  0.58082539409E+02  0.58564394750E+02  0.74470750000E+01 0. -1.
        -31    1    1    2    0    0  0.44847078260E+00 -0.73952428099E+00  0.61272480192E+02  0.61729440117E+02  0.74470750000E+01 0.  1.
<mgrwt>
<rscale>  0 0.14999533E+02</rscale>
<asrwt>0</asrwt>
<pdfrwt beam="2">  1        2 0.99696359E+00 0.14999533E+02</pdfrwt>
<pdfrwt beam="1">  1       -2 0.99467359E+00 0.14999533E+02</pdfrwt>
<totfact>-0.88974043E-14</totfact>
</mgrwt>
</event>
<event>
 4    1 -0.5245809E-019  0.1494092E+02  0.7818608E-02  0.1869877E+00
         -2   -1    0    0    0  501 -0.00000000000E+00  0.00000000000E+00  0.11963231841E+03  0.11963231844E+03  0.25500000000E-02 0.  1.
          2   -1    0    0  501    0  0.00000000000E+00 -0.00000000000E+00 -0.46649035297E+00  0.46649732252E+00  0.25500000000E-02 0. -1.
         31    1    1    2    0    0 -0.31659195890E+00 -0.34781280180E+00  0.56711420731E+02  0.57200221779E+02  0.74470750000E+01 0. -1.
        -31    1    1    2    0    0  0.31659195890E+00  0.34781280180E+00  0.62454407326E+02  0.62898593981E+02  0.74470750000E+01 0. -1.
<mgrwt>
<rscale>  0 0.14940916E+02</rscale>
<asrwt>0</asrwt>
<pdfrwt beam="2">  1        2 0.99079291E+00 0.14940916E+02</pdfrwt>
<pdfrwt beam="1">  1       -2 0.99306104E+00 0.14940916E+02</pdfrwt>
<totfact>-0.14588944E-13</totfact>
</mgrwt>
</event>
<event>
 4    1  0.5245809E-019  0.1492714E+02  0.7818608E-02  0.1870300E+00
          2   -1    0    0  501    0  0.00000000000E+00  0.00000000000E+00  0.12001294015E+03  0.12001294018E+03  0.25500000000E-02 0. -1.
         -2   -1    0    0    0  501 -0.00000000000E+00 -0.00000000000E+00 -0.46415395282E+00  0.46416095745E+00  0.25500000000E-02 0.  1.
         31    1    1    2    0    0 -0.40985545853E+00  0.11452258466E-01  0.57522228380E+02  0.58003739505E+02  0.74470750000E+01 0.  1.
        -31    1    1    2    0    0  0.40985545853E+00 -0.11452258466E-01  0.62026557815E+02  0.62473361628E+02  0.74470750000E+01 0. -1.
<mgrwt>
<rscale>  0 0.14927144E+02</rscale>
<asrwt>0</asrwt>
<pdfrwt beam="1">  1        2 0.99618897E+00 0.14927144E+02</pdfrwt>
<pdfrwt beam="2">  1       -2 0.98586189E+00 0.14927144E+02</pdfrwt>
<totfact> 0.32098365E-13</totfact>
</mgrwt>
</event>
<event>
 4    1  0.5245809E-019  0.1490103E+02  0.7818608E-02  0.1871104E+00
         -2   -1    0    0    0  501 -0.00000000000E+00  0.00000000000E+00  0.11797414543E+03  0.11797414546E+03  0.25500000000E-02 0. -1.
          2   -1    0    0  501    0  0.00000000000E+00 -0.00000000000E+00 -0.47052486935E+00  0.47053177913E+00  0.25500000000E-02 0.  1.
         31    1    1    2    0    0 -0.13242941036E+00  0.18353683552E+00  0.58795951261E+02  0.59266128894E+02  0.74470750000E+01 0. -1.
        -31    1    1    2    0    0  0.13242941036E+00 -0.18353683552E+00  0.58707669304E+02  0.59178548347E+02  0.74470750000E+01 0. -1.
<mgrwt>
<rscale>  0 0.14901031E+02</rscale>
<asrwt>0</asrwt>
<pdfrwt beam="2">  1        2 0.99927321E+00 0.14901031E+02</pdfrwt>
<pdfrwt beam="1">  1       -2 0.97938346E+00 0.14901031E+02</pdfrwt>
<totfact> 0.35986255E-13</totfact>
</mgrwt>
</event>
<event>
 4    1  0.5245809E-019  0.1490333E+02  0.7818608E-02  0.1871033E+00
         -2   -1    0    0    0  501 -0.00000000000E+00  0.00000000000E+00  0.11839943864E+03  0.11839943867E+03  0.25500000000E-02 0. -1.
          2   -1    0    0  501    0  0.00000000000E+00 -0.00000000000E+00 -0.46897909801E+00  0.46898603057E+00  0.25500000000E-02 0.  1.
         31    1    1    2    0    0  0.21962085938E+00 -0.12214938197E+00  0.58390309640E+02  0.58863828789E+02  0.74470750000E+01 0. -1.
        -31    1    1    2    0    0 -0.21962085938E+00  0.12214938197E+00  0.59540149900E+02  0.60004595907E+02  0.74470750000E+01 0.  1.
<mgrwt>
<rscale>  0 0.14903325E+02</rscale>
<asrwt>0</asrwt>
<pdfrwt beam="2">  1        2 0.99601761E+00 0.14903325E+02</pdfrwt>
<pdfrwt beam="1">  1       -2 0.98288730E+00 0.14903325E+02</pdfrwt>
<totfact> 0.72031500E-13</totfact>
</mgrwt>
</event>
<event>
 4    1 -0.5245809E-019  0.1495933E+02  0.7818608E-02  0.1869312E+00
         -2   -1    0    0    0  501 -0.00000000000E+00  0.00000000000E+00  0.11953692074E+03  0.11953692076E+03  0.25500000000E-02 0.  1.
          2   -1    0    0  501    0  0.00000000000E+00 -0.00000000000E+00 -0.46801390913E+00  0.46802085599E+00  0.25500000000E-02 0. -1.
         31    1    1    2    0    0 -0.44914679475E+00 -0.44061678535E-01  0.63800207796E+02  0.64234952442E+02  0.74470750000E+01 0.  1.
        -31    1    1    2    0    0  0.44914679475E+00  0.44061678535E-01  0.55268699030E+02  0.55769989177E+02  0.74470750000E+01 0. -1.
<mgrwt>
<rscale>  0 0.14959326E+02</rscale>
<asrwt>0</asrwt>
<pdfrwt beam="2">  1        2 0.99401308E+00 0.14959326E+02</pdfrwt>
<pdfrwt beam="1">  1       -2 0.99228482E+00 0.14959326E+02</pdfrwt>
<totfact>-0.95197261E-14</totfact>
</mgrwt>
</event>
<event>
 4    1 -0.5245809E-019  0.1490310E+02  0.7818608E-02  0.1871040E+00
          2   -1    0    0  501    0  0.00000000000E+00  0.00000000000E+00  0.11829540976E+03  0.11829540979E+03  0.25500000000E-02 0. -1.
         -2   -1    0    0    0  501 -0.00000000000E+00 -0.00000000000E+00 -0.46937753681E+00  0.46938446349E+00  0.25500000000E-02 0.  1.
         31    1    1    2    0    0 -0.19726397540E+00 -0.80497302413E-02  0.60239752741E+02  0.60698646725E+02  0.74470750000E+01 0. -1.
        -31    1    1    2    0    0  0.19726397540E+00  0.80497302413E-02  0.57586279485E+02  0.58066147529E+02  0.74470750000E+01 0.  1.
<mgrwt>
<rscale>  0 0.14903103E+02</rscale>
<asrwt>0</asrwt>
<pdfrwt beam="1">  1        2 0.98203041E+00 0.14903103E+02</pdfrwt>
<pdfrwt beam="2">  1       -2 0.99685700E+00 0.14903103E+02</pdfrwt>
<totfact>-0.47065876E-13</totfact>
</mgrwt>
</event>
<event>
 4    1 -0.5245809E-019  0.1490965E+02  0.7818608E-02  0.1870838E+00
          2   -1    0    0  501    0  0.00000000000E+00  0.00000000000E+00  0.11852315402E+03  0.11852315405E+03  0.25500000000E-02 0.  1.
         -2   -1    0    0    0  501 -0.00000000000E+00 -0.00000000000E+00 -0.46888756314E+00  0.46889449705E+00  0.25500000000E-02 0. -1.
         31    1    1    2    0    0 -0.29392009308E+00  0.17063176060E+00  0.59059808001E+02  0.59528441533E+02  0.74470750000E+01 0.  1.
        -31    1    1    2    0    0  0.29392009308E+00 -0.17063176060E+00  0.58994458457E+02  0.59463607012E+02  0.74470750000E+01 0. -1.
<mgrwt>
<rscale>  0 0.14909654E+02</rscale>
<asrwt>0</asrwt>
<pdfrwt beam="1">  1        2 0.98390951E+00 0.14909654E+02</pdfrwt>
<pdfrwt beam="2">  1       -2 0.99582808E+00 0.14909654E+02</pdfrwt>
<totfact>-0.39666035E-13</totfact>
</mgrwt>
</event>
<event>
 4    1 -0.5245809E-019  0.1497777E+02  0.7818608E-02  0.1868747E+00
          2   -1    0    0  501    0  0.00000000000E+00  0.00000000000E+00  0.11994560964E+03  0.11994560967E+03  0.25500000000E-02 0. -1.
         -2   -1    0    0    0  501 -0.00000000000E+00 -0.00000000000E+00 -0.46757039136E+00  0.46757734481E+00  0.25500000000E-02 0.  1.
         31    1    1    2    0    0 -0.36565062440E+00 -0.69731372028E+00  0.60282088308E+02  0.60745444633E+02  0.74470750000E+01 0. -1.
        -31    1    1    2    0    0  0.36565062440E+00  0.69731372028E+00  0.59195950942E+02  0.59667742381E+02  0.74470750000E+01 0. -1.
<mgrwt>
<rscale>  0 0.14977775E+02</rscale>
<asrwt>0</asrwt>
<pdfrwt beam="1">  1        2 0.99566048E+00 0.14977775E+02</pdfrwt>
<pdfrwt beam="2">  1       -2 0.99308796E+00 0.14977775E+02</pdfrwt>
<totfact>-0.97412788E-14</totfact>
</mgrwt>
</event>
<event>
 4    1  0.5245809E-019  0.1494437E+02  0.7818608E-02  0.1869771E+00
         -2   -1    0    0    0  501 -0.00000000000E+00  0.00000000000E+00  0.11909781956E+03  0.11909781959E+03  0.25500000000E-02 0.  1.
          2   -1    0    0  501    0  0.00000000000E+00 -0.00000000000E+00 -0.46880084664E+00  0.46880778184E+00  0.25500000000E-02 0. -1.
         31    1    1    2    0    0 -0.14849344924E+00 -0.26064099852E+00  0.63583243872E+02  0.64018573956E+02  0.74470750000E+01 0. -1.
        -31    1    1    2    0    0  0.14849344924E+00  0.26064099852E+00  0.55045774844E+02  0.55548053415E+02  0.74470750000E+01 0. -1.
<mgrwt>
<rscale>  0 0.14944374E+02</rscale>
<asrwt>0</asrwt>
<pdfrwt beam="2">  1        2 0.99566356E+00 0.14944374E+02</pdfrwt>
<pdfrwt beam="1">  1       -2 0.98866053E+00 0.14944374E+02</pdfrwt>
<totfact> 0.90362168E-14</totfact>
</mgrwt>
</event>
<event>
 4    1  0.5245809E-019  0.1492406E+02  0.7818608E-02  0.1870395E+00
          2   -1    0    0  501    0  0.00000000000E+00  0.00000000000E+00  0.12026395462E+03  0.12026395465E+03  0.25500000000E-02 0.  1.
         -2   -1    0    0    0  501 -0.00000000000E+00 -0.00000000000E+00 -0.46299365399E+00  0.46300067617E+00  0.25500000000E-02 0. -1.
         31    1    1    2    0    0 -0.24388726941E+00  0.38733755819E+00  0.60838150938E+02  0.61293956040E+02  0.74470750000E+01 0. -1.
        -31    1    1    2    0    0  0.24388726941E+00 -0.38733755819E+00  0.58962810033E+02  0.59432999288E+02  0.74470750000E+01 0.  1.
<mgrwt>
<rscale>  0 0.14924058E+02</rscale>
<asrwt>0</asrwt>
<pdfrwt beam="1">  1        2 0.99825493E+00 0.14924058E+02</pdfrwt>
<pdfrwt beam="2">  1       -2 0.98341482E+00 0.14924058E+02</pdfrwt>
<totfact> 0.35760674E-13</totfact>
</mgrwt>
</event>
<event>
 4    1 -0.5245809E-019  0.1503454E+02  0.7818608E-02  0.1867016E+00
          2   -1    0    0  501    0  0.00000000000E+00  0.00000000000E+00  0.12019177820E+03  0.12019177823E+03  0.25500000000E-02 0.  1.
         -2   -1    0    0    0  501 -0.00000000000E+00 -0.00000000000E+00 -0.47015638463E+00  0.47016329983E+00  0.25500000000E-02 0. -1.
         31    1    1    2    0    0 -0.46125349909E+00 -0.26092284740E+00  0.66901410159E+02  0.67316702554E+02  0.74470750000E+01 0.  1.
        -31    1    1    2    0    0  0.46125349909E+00  0.26092284740E+00  0.52820211662E+02  0.53345238978E+02  0.74470750000E+01 0. -1.
<mgrwt>
<rscale>  0 0.15034540E+02</rscale>
<asrwt>0</asrwt>
<pdfrwt beam="1">  1        2 0.99771736E+00 0.15034540E+02</pdfrwt>
<pdfrwt beam="2">  1       -2 0.99856690E+00 0.15034540E+02</pdfrwt>
<totfact>-0.32549841E-14</totfact>
</mgrwt>
</event>
<event>
 4    1 -0.5245809E-019  0.1495790E+02  0.7818608E-02  0.1869356E+00
          2   -1    0    0  501    0  0.00000000000E+00  0.00000000000E+00  0.11957298755E+03  0.11957298757E+03  0.25500000000E-02 0. -1.
         -2   -1    0    0    0  501 -0.00000000000E+00 -0.00000000000E+00 -0.46778341472E+00  0.46779036500E+00  0.25500000000E-02 0.  1.
         31    1    1    2    0    0 -0.25067927319E+00 -0.31818326511E+00  0.64032905732E+02  0.64465774045E+02  0.74470750000E+01 0.  1.
        -31    1    1    2    0    0  0.25067927319E+00  0.31818326511E+00  0.55072298400E+02  0.55575003894E+02  0.74470750000E+01 0. -1.
<mgrwt>
<rscale>  0 0.14957898E+02</rscale>
<asrwt>0</asrwt>
<pdfrwt beam="1">  1        2 0.99258114E+00 0.14957898E+02</pdfrwt>
<pdfrwt beam="2">  1       -2 0.99352662E+00 0.14957898E+02</pdfrwt>
<totfact>-0.13608645E-13</totfact>
</mgrwt>
</event>
<event>
 4    1  0.5245809E-019  0.1490472E+02  0.7818608E-02  0.1870990E+00
         -2   -1    0    0    0  501 -0.00000000000E+00  0.00000000000E+00  0.11853772902E+03  0.11853772905E+03  0.25500000000E-02 0. -1.
          2   -1    0    0  501    0  0.00000000000E+00 -0.00000000000E+00 -0.46851943766E+00  0.46852637702E+00  0.25500000000E-02 0.  1.
         31    1    1    2    0    0  0.10893812248E+00 -0.14553828962E+00  0.57328285636E+02  0.57810243979E+02  0.74470750000E+01 0.  1.
        -31    1    1    2    0    0 -0.10893812248E+00  0.14553828962E+00  0.60740923951E+02  0.61196011450E+02  0.74470750000E+01 0. -1.
<mgrwt>
<rscale>  0 0.14904717E+02</rscale>
<asrwt>0</asrwt>
<pdfrwt beam="2">  1        2 0.99504982E+00 0.14904717E+02</pdfrwt>
<pdfrwt beam="1">  1       -2 0.98402698E+00 0.14904717E+02</pdfrwt>
<totfact> 0.62365668E-13</totfact>
</mgrwt>
</event>
<event>
 4    1 -0.5245809E-019  0.1491254E+02  0.7818608E-02  0.1870749E+00
          2   -1    0    0  501    0  0.00000000000E+00  0.00000000000E+00  0.11816430458E+03  0.11816430460E+03  0.25500000000E-02 0. -1.
         -2   -1    0    0    0  501 -0.00000000000E+00 -0.00000000000E+00 -0.47049375167E+00  0.47050066191E+00  0.25500000000E-02 0.  1.
         31    1    1    2    0    0 -0.27260140351E+00  0.23616762711E+00  0.59510870292E+02  0.59976101038E+02  0.74470750000E+01 0.  1.
        -31    1    1    2    0    0  0.27260140351E+00 -0.23616762711E+00  0.58182940531E+02  0.58658704227E+02  0.74470750000E+01 0.  1.
<mgrwt>
<rscale>  0 0.14912542E+02</rscale>
<asrwt>0</asrwt>
<pdfrwt beam="1">  1        2 0.98095557E+00 0.14912542E+02</pdfrwt>
<pdfrwt beam="2">  1       -2 0.99921378E+00 0.14912542E+02</pdfrwt>
<totfact>-0.17770173E-13</totfact>
</mgrwt>
</event>
<event>
 4    1 -0.5245809E-019  0.1493992E+02  0.7818608E-02  0.1869907E+00
          2   -1    0    0  501    0  0.00000000000E+00  0.00000000000E+00  0.11886729032E+03  0.11886729035E+03  0.25500000000E-02 0.  1.
         -2   -1    0    0    0  501 -0.00000000000E+00 -0.00000000000E+00 -0.46943009468E+00  0.46943702058E+00  0.25500000000E-02 0. -1.
         31    1    1    2    0    0 -0.24944260326E+00  0.17995675899E+00  0.55230957664E+02  0.55731608774E+02  0.74470750000E+01 0. -1.
        -31    1    1    2    0    0  0.24944260326E+00 -0.17995675899E+00  0.63166902561E+02  0.63605118593E+02  0.74470750000E+01 0.  1.
<mgrwt>
<rscale>  0 0.14939919E+02</rscale>
<asrwt>0</asrwt>
<pdfrwt beam="1">  1        2 0.98675956E+00 0.14939919E+02</pdfrwt>
<pdfrwt beam="2">  1       -2 0.99698713E+00 0.14939919E+02</pdfrwt>
<totfact>-0.21244533E-13</totfact>
</mgrwt>
</event>
<event>
 4    1 -0.5245809E-019  0.1491792E+02  0.7818608E-02  0.1870584E+00
         -2   -1    0    0    0  501 -0.00000000000E+00  0.00000000000E+00  0.12006246232E+03  0.12006246235E+03  0.25500000000E-02 0. -1.
          2   -1    0    0  501    0  0.00000000000E+00 -0.00000000000E+00 -0.46338914015E+00  0.46339615634E+00  0.25500000000E-02 0.  1.
         31    1    1    2    0    0 -0.11045973236E+00 -0.11750847960E+00  0.56658685546E+02  0.57146229827E+02  0.74470750000E+01 0.  1.
        -31    1    1    2    0    0  0.11045973236E+00  0.11750847960E+00  0.62940387635E+02  0.63379628678E+02  0.74470750000E+01 0. -1.
<mgrwt>
<rscale>  0 0.14917917E+02</rscale>
<asrwt>0</asrwt>
<pdfrwt beam="2">  1        2 0.98424527E+00 0.14917917E+02</pdfrwt>
<pdfrwt beam="1">  1       -2 0.99659213E+00 0.14917917E+02</pdfrwt>
<totfact>-0.34016855E-13</totfact>
</mgrwt>
</event>
<event>
 4    1  0.5245809E-019  0.1490942E+02  0.7818608E-02  0.1870845E+00
         -2   -1    0    0    0  501 -0.00000000000E+00  0.00000000000E+00  0.11818002012E+03  0.11818002014E+03  0.25500000000E-02 0. -1.
          2   -1    0    0  501    0  0.00000000000E+00 -0.00000000000E+00 -0.47023408677E+00  0.47024100083E+00  0.25500000000E-02 0.  1.
         31    1    1    2    0    0 -0.24648101156E+00 -0.22562743955E+00  0.59219487291E+02  0.59686834911E+02  0.74470750000E+01 0. -1.
        -31    1    1    2    0    0  0.24648101156E+00  0.22562743955E+00  0.58490298738E+02  0.58963426233E+02  0.74470750000E+01 0.  1.
<mgrwt>
<rscale>  0 0.14909418E+02</rscale>
<asrwt>0</asrwt>
<pdfrwt beam="2">  1        2 0.99866503E+00 0.14909418E+02</pdfrwt>
<pdfrwt beam="1">  1       -2 0.98108337E+00 0.14909418E+02</pdfrwt>
<totfact> 0.46142657E-13</totfact>
</mgrwt>
</event>
<event>
 4    1 -0.5245809E-019  0.1504583E+02  0.7818608E-02  0.1866673E+00
          2   -1    0    0  501    0  0.00000000000E+00  0.00000000000E+00  0.12034284606E+03  0.12034284609E+03  0.25500000000E-02 0. -1.
         -2   -1    0    0    0  501 -0.00000000000E+00 -0.00000000000E+00 -0.47027164596E+00  0.47027855947E+00  0.25500000000E-02 0.  1.
         31    1    1    2    0    0 -0.32734783119E+00  0.10133803145E+01  0.60217352309E+02  0.60685439286E+02  0.74470750000E+01 0. -1.
        -31    1    1    2    0    0  0.32734783119E+00 -0.10133803145E+01  0.59655222107E+02  0.60127685362E+02  0.74470750000E+01 0.  1.
<mgrwt>
<rscale>  0 0.15045830E+02</rscale>
<asrwt>0</asrwt>
<pdfrwt beam="1">  1        2 0.99896744E+00 0.15045830E+02</pdfrwt>
<pdfrwt beam="2">  1       -2 0.99881563E+00 0.15045830E+02</pdfrwt>
<totfact>-0.14277698E-14</totfact>
</mgrwt>
</event>
<event>
 4    1  0.5245809E-019  0.1494036E+02  0.7818608E-02  0.1869894E+00
         -2   -1    0    0    0  501 -0.00000000000E+00  0.00000000000E+00  0.11888866625E+03  0.11888866628E+03  0.25500000000E-02 0.  1.
          2   -1    0    0  501    0  0.00000000000E+00 -0.00000000000E+00 -0.46937356865E+00  0.46938049538E+00  0.25500000000E-02 0. -1.
         31    1    1    2    0    0  0.40360825965E+00  0.41244087934E+00  0.60073024071E+02  0.60535610629E+02  0.74470750000E+01 0.  1.
        -31    1    1    2    0    0 -0.40360825965E+00 -0.41244087934E+00  0.58346268613E+02  0.58822436146E+02  0.74470750000E+01 0.  1.
<mgrwt>
<rscale>  0 0.14940363E+02</rscale>
<asrwt>0</asrwt>
<pdfrwt beam="2">  1        2 0.99686826E+00 0.14940363E+02</pdfrwt>
<pdfrwt beam="1">  1       -2 0.98693584E+00 0.14940363E+02</pdfrwt>
<totfact> 0.19174139E-13</totfact>
</mgrwt>
</event>
<event>
 4    1 -0.5245809E-019  0.1491155E+02  0.7818608E-02  0.1870780E+00
         -2   -1    0    0    0  501 -0.00000000000E+00  0.00000000000E+00  0.12003366492E+03  0.12003366495E+03  0.25500000000E-02 0.  1.
          2   -1    0    0  501    0  0.00000000000E+00 -0.00000000000E+00 -0.46310467522E+00  0.46311169572E+00  0.25500000000E-02 0. -1.
         31    1    1    2    0    0  0.10439194964E-01  0.24708901989E+00  0.61900034339E+02  0.62346887166E+02  0.74470750000E+01 0.  1.
        -31    1    1    2    0    0 -0.10439194964E-01 -0.24708901989E+00  0.57670525908E+02  0.58149889480E+02  0.74470750000E+01 0. -1.
<mgrwt>
<rscale>  0 0.14911549E+02</rscale>
<asrwt>0</asrwt>
<pdfrwt beam="2">  1        2 0.98364248E+00 0.14911549E+02</pdfrwt>
<pdfrwt beam="1">  1       -2 0.99635166E+00 0.14911549E+02</pdfrwt>
<totfact>-0.39038595E-13</totfact>
</mgrwt>
</event>
<event>
 4    1  0.5245809E-019  0.1493246E+02  0.7818608E-02  0.1870137E+00
         -2   -1    0    0    0  501 -0.00000000000E+00  0.00000000000E+00  0.11854794617E+03  0.11854794619E+03  0.25500000000E-02 0.  1.
          2   -1    0    0  501    0  0.00000000000E+00 -0.00000000000E+00 -0.47022445556E+00  0.47023136976E+00  0.25500000000E-02 0. -1.
         31    1    1    2    0    0  0.19249427338E+00 -0.12051204800E+00  0.55182839480E+02  0.55683536852E+02  0.74470750000E+01 0. -1.
        -31    1    1    2    0    0 -0.19249427338E+00  0.12051204800E+00  0.62894882231E+02  0.63334640711E+02  0.74470750000E+01 0.  1.
<mgrwt>
<rscale>  0 0.14932455E+02</rscale>
<asrwt>0</asrwt>
<pdfrwt beam="2">  1        2 0.99865694E+00 0.14932455E+02</pdfrwt>
<pdfrwt beam="1">  1       -2 0.98412556E+00 0.14932455E+02</pdfrwt>
<totfact> 0.24265064E-13</totfact>
</mgrwt>
</event>
<event>
 4    1  0.5245809E-019  0.1491416E+02  0.7818608E-02  0.1870699E+00
          2   -1    0    0  501    0  0.00000000000E+00  0.00000000000E+00  0.12036658008E+03  0.12036658011E+03  0.25500000000E-02 0.  1.
         -2   -1    0    0    0  501 -0.00000000000E+00 -0.00000000000E+00 -0.46198560137E+00  0.46199263887E+00  0.25500000000E-02 0. -1.
         31    1    1    2    0    0  0.77304858656E-01 -0.34269213490E+00  0.61251428275E+02  0.61703482931E+02  0.74470750000E+01 0.  1.
        -31    1    1    2    0    0 -0.77304858656E-01  0.34269213490E+00  0.58653166203E+02  0.59125089815E+02  0.74470750000E+01 0.  1.
<mgrwt>
<rscale>  0 0.14914162E+02</rscale>
<asrwt>0</asrwt>
<pdfrwt beam="1">  1        2 0.99909518E+00 0.14914162E+02</pdfrwt>
<pdfrwt beam="2">  1       -2 0.98128510E+00 0.14914162E+02</pdfrwt>
<totfact> 0.31600134E-13</totfact>
</mgrwt>
</event>
<event>
 4    1 -0.5245809E-019  0.1493581E+02  0.7818608E-02  0.1870034E+00
         -2   -1    0    0    0  501 -0.00000000000E+00  0.00000000000E+00  0.11976449135E+03  0.11976449138E+03  0.25500000000E-02 0.  1.
          2   -1    0    0  501    0  0.00000000000E+00 -0.00000000000E+00 -0.46565706612E+00  0.46566404814E+00  0.25500000000E-02 0. -1.
         31    1    1    2    0    0  0.36674891565E-02  0.18988846171E+00  0.55431096757E+02  0.55929433081E+02  0.74470750000E+01 0. -1.
        -31    1    1    2    0    0 -0.36674891565E-02 -0.18988846171E+00  0.63867737532E+02  0.64300722349E+02  0.74470750000E+01 0.  1.
<mgrwt>
<rscale>  0 0.14935810E+02</rscale>
<asrwt>0</asrwt>
<pdfrwt beam="2">  1        2 0.98903418E+00 0.14935810E+02</pdfrwt>
<pdfrwt beam="1">  1       -2 0.99414705E+00 0.14935810E+02</pdfrwt>
<totfact>-0.19474659E-13</totfact>
</mgrwt>
</event>
<event>
 4    1  0.5245809E-019  0.1490222E+02  0.7818608E-02  0.1871067E+00
          2   -1    0    0  501    0  0.00000000000E+00  0.00000000000E+00  0.11942167823E+03  0.11942167826E+03  0.25500000000E-02 0. -1.
         -2   -1    0    0    0  501 -0.00000000000E+00 -0.00000000000E+00 -0.46489595413E+00  0.46490294758E+00  0.25500000000E-02 0.  1.
         31    1    1    2    0    0  0.10612053646E-01 -0.23316214588E+00  0.58872476183E+02  0.59342074915E+02  0.74470750000E+01 0.  1.
        -31    1    1    2    0    0 -0.10612053646E-01  0.23316214588E+00  0.60084306093E+02  0.60544506290E+02  0.74470750000E+01 0. -1.
<mgrwt>
<rscale>  0 0.14902225E+02</rscale>
<asrwt>0</asrwt>
<pdfrwt beam="1">  1        2 0.99130613E+00 0.14902225E+02</pdfrwt>
<pdfrwt beam="2">  1       -2 0.98741293E+00 0.14902225E+02</pdfrwt>
<totfact> 0.27389982E-13</totfact>
</mgrwt>
</event>
<event>
 4    1  0.5245809E-019  0.1494137E+02  0.7818608E-02  0.1869863E+00
          2   -1    0    0  501    0  0.00000000000E+00  0.00000000000E+00  0.11995350634E+03  0.11995350637E+03  0.25500000000E-02 0. -1.
         -2   -1    0    0    0  501 -0.00000000000E+00 -0.00000000000E+00 -0.46526963069E+00  0.46527661852E+00  0.25500000000E-02 0.  1.
         31    1    1    2    0    0  0.47915854560E+00  0.34684021413E+00  0.59355184849E+02  0.59823463503E+02  0.74470750000E+01 0.  1.
        -31    1    1    2    0    0 -0.47915854560E+00 -0.34684021413E+00  0.60133051862E+02  0.60595319484E+02  0.74470750000E+01 0. -1.
<mgrwt>
<rscale>  0 0.14941372E+02</rscale>
<asrwt>0</asrwt>
<pdfrwt beam="1">  1        2 0.99570675E+00 0.14941372E+02</pdfrwt>
<pdfrwt beam="2">  1       -2 0.98822051E+00 0.14941372E+02</pdfrwt>
<totfact> 0.12217958E-13</totfact>
</mgrwt>
</event>
<event>
 4    1 -0.5245809E-019  0.1491904E+02  0.7818608E-02  0.1870549E+00
          2   -1    0    0  501    0  0.00000000000E+00  0.00000000000E+00  0.11850052871E+03  0.11850052873E+03  0.25500000000E-02 0. -1.
         -2   -1    0    0    0  501 -0.00000000000E+00 -0.00000000000E+00 -0.46956800518E+00  0.46957492905E+00  0.25500000000E-02 0.  1.
         31    1    1    2    0    0 -0.47970347838E-02 -0.36337820251E+00  0.60859573086E+02  0.61314587408E+02  0.74470750000E+01 0. -1.
        -31    1    1    2    0    0  0.47970347838E-02  0.36337820251E+00  0.57171387616E+02  0.57655516255E+02  0.74470750000E+01 0.  1.
<mgrwt>
<rscale>  0 0.14919044E+02</rscale>
<asrwt>0</asrwt>
<pdfrwt beam="1">  1        2 0.98372806E+00 0.14919044E+02</pdfrwt>
<pdfrwt beam="2">  1       -2 0.99726673E+00 0.14919044E+02</pdfrwt>
<totfact>-0.32224201E-13</totfact>
</mgrwt>
</event>
<event>
 4    1 -0.5245809E-019  0.1490299E+02  0.7818608E-02  0.1871043E+00
          2   -1    0    0  501    0  0.00000000000E+00  0.00000000000E+00  0.11827889876E+03  0.11827889879E+03  0.25500000000E-02 0. -1.
         -2   -1    0    0    0  501 -0.00000000000E+00 -0.00000000000E+00 -0.46943579021E+00  0.46944271602E+00  0.25500000000E-02 0.  1.
         31    1    1    2    0    0  0.65625072689E-01 -0.12400364407E+00  0.57192953966E+02  0.57675927326E+02  0.74470750000E+01 0.  1.
        -31    1    1    2    0    0 -0.65625072689E-01  0.12400364407E+00  0.60616509007E+02  0.61072414180E+02  0.74470750000E+01 0. -1.
<mgrwt>
<rscale>  0 0.14902988E+02</rscale>
<asrwt>0</asrwt>
<pdfrwt beam="1">  1        2 0.98189437E+00 0.14902988E+02</pdfrwt>
<pdfrwt beam="2">  1       -2 0.99697967E+00 0.14902988E+02</pdfrwt>
<totfact>-0.46959230E-13</totfact>
</mgrwt>
</event>
<event>
 4    1  0.5245809E-019  0.1492577E+02  0.7818608E-02  0.1870342E+00
         -2   -1    0    0    0  501 -0.00000000000E+00  0.00000000000E+00  0.11901104238E+03  0.11901104241E+03  0.25500000000E-02 0. -1.
          2   -1    0    0  501    0  0.00000000000E+00 -0.00000000000E+00 -0.46797507882E+00  0.46798202626E+00  0.25500000000E-02 0.  1.
         31    1    1    2    0    0 -0.14537895835E+00  0.41693127511E+00  0.57656096824E+02  0.58136730160E+02  0.74470750000E+01 0. -1.
        -31    1    1    2    0    0  0.14537895835E+00 -0.41693127511E+00  0.60886970476E+02  0.61342294272E+02  0.74470750000E+01 0.  1.
<mgrwt>
<rscale>  0 0.14925765E+02</rscale>
<asrwt>0</asrwt>
<pdfrwt beam="2">  1        2 0.99391381E+00 0.14925765E+02</pdfrwt>
<pdfrwt beam="1">  1       -2 0.98793617E+00 0.14925765E+02</pdfrwt>
<totfact> 0.17293258E-13</totfact>
</mgrwt>
</event>
<event>
 4    1  0.5245809E-019  0.1491409E+02  0.7818608E-02  0.1870701E+00
         -2   -1    0    0    0  501 -0.00000000000E+00  0.00000000000E+00  0.11827318242E+03  0.11827318244E+03  0.25500000000E-02 0. -1.
          2   -1    0    0  501    0  0.00000000000E+00 -0.00000000000E+00 -0.47015827528E+00  0.47016519045E+00  0.25500000000E-02 0.  1.
         31    1    1    2    0    0  0.34370564558E-01 -0.65224701474E-01  0.61914049474E+02  0.62360355065E+02  0.74470750000E+01 0. -1.
        -31    1    1    2    0    0 -0.34370564558E-01  0.65224701474E-01  0.55888974668E+02  0.56382992570E+02  0.74470750000E+01 0.  1.
<mgrwt>
<rscale>  0 0.14914091E+02</rscale>
<asrwt>0</asrwt>
<pdfrwt beam="2">  1        2 0.99850779E+00 0.14914091E+02</pdfrwt>
<pdfrwt beam="1">  1       -2 0.98185308E+00 0.14914091E+02</pdfrwt>
<totfact> 0.43798756E-13</totfact>
</mgrwt>
</event>
<event>
 4    1  0.5245809E-019  0.1491293E+02  0.7818608E-02  0.1870737E+00
         -2   -1    0    0    0  501 -0.00000000000E+00  0.00000000000E+00  0.11872689023E+03  0.11872689026E+03  0.25500000000E-02 0. -1.
          2   -1    0    0  501    0  0.00000000000E+00 -0.00000000000E+00 -0.46828882409E+00  0.46829576687E+00  0.25500000000E-02 0.  1.
         31    1    1    2    0    0 -0.18245454147E+00  0.24924832661E+00  0.60816332597E+02  0.61271368933E+02  0.74470750000E+01 0.  1.
        -31    1    1    2    0    0  0.18245454147E+00 -0.24924832661E+00  0.57442268811E+02  0.57923817093E+02  0.74470750000E+01 0.  1.
<mgrwt>
<rscale>  0 0.14912933E+02</rscale>
<asrwt>0</asrwt>
<pdfrwt beam="2">  1        2 0.99456821E+00 0.14912933E+02</pdfrwt>
<pdfrwt beam="1">  1       -2 0.98558919E+00 0.14912933E+02</pdfrwt>
<totfact> 0.42458672E-13</totfact>
</mgrwt>
</event>
<event>
 4    1 -0.5245809E-019  0.1493410E+02  0.7818608E-02  0.1870086E+00
          2   -1    0    0  501    0  0.00000000000E+00  0.00000000000E+00  0.11893603663E+03  0.11893603666E+03  0.25500000000E-02 0. -1.
         -2   -1    0    0    0  501 -0.00000000000E+00 -0.00000000000E+00 -0.46879319847E+00  0.46880013378E+00  0.25500000000E-02 0.  1.
         31    1    1    2    0    0 -0.16270036874E+00 -0.51326114001E+00  0.58519101847E+02  0.58993509096E+02  0.74470750000E+01 0.  1.
        -31    1    1    2    0    0  0.16270036874E+00  0.51326114001E+00  0.59948141583E+02  0.60411327694E+02  0.74470750000E+01 0.  1.
<mgrwt>
<rscale>  0 0.14934098E+02</rscale>
<asrwt>0</asrwt>
<pdfrwt beam="1">  1        2 0.98732273E+00 0.14934098E+02</pdfrwt>
<pdfrwt beam="2">  1       -2 0.99564207E+00 0.14934098E+02</pdfrwt>
<totfact>-0.23677735E-13</totfact>
</mgrwt>
</event>
<event>
 4    1 -0.5245809E-019  0.1492729E+02  0.7818608E-02  0.1870295E+00
         -2   -1    0    0    0  501 -0.00000000000E+00  0.00000000000E+00  0.11963750469E+03  0.11963750472E+03  0.25500000000E-02 0. -1.
          2   -1    0    0  501    0  0.00000000000E+00 -0.00000000000E+00 -0.46561954535E+00  0.46562652793E+00  0.25500000000E-02 0.  1.
         31    1    1    2    0    0  0.82676992081E-02 -0.33433589560E+00  0.56627437328E+02  0.57115999801E+02  0.74470750000E+01 0.  1.
        -31    1    1    2    0    0 -0.82676992081E-02  0.33433589560E+00  0.62544447817E+02  0.62987131445E+02  0.74470750000E+01 0.  1.
<mgrwt>
<rscale>  0 0.14927288E+02</rscale>
<asrwt>0</asrwt>
<pdfrwt beam="2">  1        2 0.98895074E+00 0.14927288E+02</pdfrwt>
<pdfrwt beam="1">  1       -2 0.99309672E+00 0.14927288E+02</pdfrwt>
<totfact>-0.17575838E-13</totfact>
</mgrwt>
</event>
<event>
 4    1 -0.5245809E-019  0.1493436E+02  0.7818608E-02  0.1870078E+00
          2   -1    0    0  501    0  0.00000000000E+00  0.00000000000E+00  0.11927890459E+03  0.11927890462E+03  0.25500000000E-02 0. -1.
         -2   -1    0    0    0  501 -0.00000000000E+00 -0.00000000000E+00 -0.46746222403E+00  0.46746917908E+00  0.25500000000E-02 0.  1.
         31    1    1    2    0    0  0.54607727402E+00 -0.34726292100E-01  0.59579127327E+02  0.60045239157E+02  0.74470750000E+01 0. -1.
        -31    1    1    2    0    0 -0.54607727402E+00  0.34726292100E-01  0.59232315036E+02  0.59701134637E+02  0.74470750000E+01 0.  1.
<mgrwt>
<rscale>  0 0.14934363E+02</rscale>
<asrwt>0</asrwt>
<pdfrwt beam="1">  1        2 0.99014680E+00 0.14934363E+02</pdfrwt>
<pdfrwt beam="2">  1       -2 0.99283758E+00 0.14934363E+02</pdfrwt>
<totfact>-0.14809381E-13</totfact>
</mgrwt>
</event>
<event>
 4    1 -0.5245809E-019  0.1495216E+02  0.7818608E-02  0.1869532E+00
          2   -1    0    0  501    0  0.00000000000E+00  0.00000000000E+00  0.11898720141E+03  0.11898720144E+03  0.25500000000E-02 0. -1.
         -2   -1    0    0    0  501 -0.00000000000E+00 -0.00000000000E+00 -0.46972560602E+00  0.46973252756E+00  0.25500000000E-02 0.  1.
         31    1    1    2    0    0  0.44305525494E+00 -0.10951620751E+00  0.55473029653E+02  0.55972531091E+02  0.74470750000E+01 0.  1.
        -31    1    1    2    0    0 -0.44305525494E+00  0.10951620751E+00  0.63044446156E+02  0.63484402879E+02  0.74470750000E+01 0. -1.
<mgrwt>
<rscale>  0 0.14952157E+02</rscale>
<asrwt>0</asrwt>
<pdfrwt beam="1">  1        2 0.98775351E+00 0.14952157E+02</pdfrwt>
<pdfrwt beam="2">  1       -2 0.99761623E+00 0.14952157E+02</pdfrwt>
<totfact>-0.15703010E-13</totfact>
</mgrwt>
</event>
<event>
 4    1  0.5245809E-019  0.1493572E+02  0.7818608E-02  0.1870036E+00
         -2   -1    0    0    0  501 -0.00000000000E+00  0.00000000000E+00  0.11900093271E+03  0.11900093273E+03  0.25500000000E-02 0.  1.
          2   -1    0    0  501    0  0.00000000000E+00 -0.00000000000E+00 -0.46863916374E+00  0.46864610132E+00  0.25500000000E-02 0. -1.
         31    1    1    2    0    0  0.79219627601E-01 -0.51706680491E-01  0.54877384227E+02  0.55380458421E+02  0.74470750000E+01 0. -1.
        -31    1    1    2    0    0 -0.79219627601E-01  0.51706680491E-01  0.63654909315E+02  0.64089120413E+02  0.74470750000E+01 0.  1.
<mgrwt>
<rscale>  0 0.14935717E+02</rscale>
<asrwt>0</asrwt>
<pdfrwt beam="2">  1        2 0.99531835E+00 0.14935717E+02</pdfrwt>
<pdfrwt beam="1">  1       -2 0.98785807E+00 0.14935717E+02</pdfrwt>
<totfact> 0.15818413E-13</totfact>
</mgrwt>
</event>
<event>
 4    1 -0.5245809E-019  0.1494426E+02  0.7818608E-02  0.1869774E+00
         -2   -1    0    0    0  501 -0.00000000000E+00  0.00000000000E+00  0.12008376547E+03  0.12008376550E+03  0.25500000000E-02 0.  1.
          2   -1    0    0  501    0  0.00000000000E+00 -0.00000000000E+00 -0.46494473798E+00  0.46495173069E+00  0.25500000000E-02 0. -1.
         31    1    1    2    0    0 -0.40348664620E+00 -0.44509995496E+00  0.58893350559E+02  0.59365365168E+02  0.74470750000E+01 0. -1.
        -31    1    1    2    0    0  0.40348664620E+00  0.44509995496E+00  0.60725470172E+02  0.61183352059E+02  0.74470750000E+01 0.  1.
<mgrwt>
<rscale>  0 0.14944262E+02</rscale>
<asrwt>0</asrwt>
<pdfrwt beam="2">  1        2 0.98753726E+00 0.14944262E+02</pdfrwt>
<pdfrwt beam="1">  1       -2 0.99678114E+00 0.14944262E+02</pdfrwt>
<totfact>-0.19857496E-13</totfact>
</mgrwt>
</event>
<event>
 4    1 -0.5245809E-019  0.1501226E+02  0.7818608E-02  0.1867695E+00
          2   -1    0    0  501    0  0.00000000000E+00  0.00000000000E+00  0.11982169046E+03  0.11982169049E+03  0.25500000000E-02 0. -1.
         -2   -1    0    0    0  501 -0.00000000000E+00 -0.00000000000E+00 -0.47021190569E+00  0.47021882007E+00  0.25500000000E-02 0.  1.
         31    1    1    2    0    0 -0.80958940535E+00 -0.20562097287E+00  0.63125591473E+02  0.63568836232E+02  0.74470750000E+01 0. -1.
        -31    1    1    2    0    0  0.80958940535E+00  0.20562097287E+00  0.56225887085E+02  0.56723073079E+02  0.74470750000E+01 0.  1.
<mgrwt>
<rscale>  0 0.15012262E+02</rscale>
<asrwt>0</asrwt>
<pdfrwt beam="1">  1        2 0.99465767E+00 0.15012262E+02</pdfrwt>
<pdfrwt beam="2">  1       -2 0.99867234E+00 0.15012262E+02</pdfrwt>
<totfact>-0.51817607E-14</totfact>
</mgrwt>
</event>
<event>
 4    1 -0.5245809E-019  0.1499453E+02  0.7818608E-02  0.1868236E+00
         -2   -1    0    0    0  501 -0.00000000000E+00  0.00000000000E+00  0.11993845396E+03  0.11993845398E+03  0.25500000000E-02 0. -1.
          2   -1    0    0  501    0  0.00000000000E+00 -0.00000000000E+00 -0.46864480016E+00  0.46865173767E+00  0.25500000000E-02 0.  1.
         31    1    1    2    0    0  0.77600789400E+00 -0.32543282636E+00  0.58090577254E+02  0.58572025631E+02  0.74470750000E+01 0.  1.
        -31    1    1    2    0    0 -0.77600789400E+00  0.32543282636E+00  0.61379231902E+02  0.61835080089E+02  0.74470750000E+01 0. -1.
<mgrwt>
<rscale>  0 0.14994526E+02</rscale>
<asrwt>0</asrwt>
<pdfrwt beam="2">  1        2 0.99536079E+00 0.14994526E+02</pdfrwt>
<pdfrwt beam="1">  1       -2 0.99561019E+00 0.14994526E+02</pdfrwt>
<totfact>-0.11144833E-13</totfact>
</mgrwt>
</event>
<event>
 4    1  0.5245809E-019  0.1490639E+02  0.7818608E-02  0.1870939E+00
         -2   -1    0    0    0  501 -0.00000000000E+00  0.00000000000E+00  0.11873162922E+03  0.11873162924E+03  0.25500000000E-02 0. -1.
          2   -1    0    0  501    0  0.00000000000E+00 -0.00000000000E+00 -0.46785936041E+00  0.46786630956E+00  0.25500000000E-02 0.  1.
         31    1    1    2    0    0 -0.15190572418E+00  0.19571257079E+00  0.57751119250E+02  0.58229821222E+02  0.74470750000E+01 0.  1.
        -31    1    1    2    0    0  0.15190572418E+00 -0.19571257079E+00  0.60512650605E+02  0.60969674331E+02  0.74470750000E+01 0. -1.
<mgrwt>
<rscale>  0 0.14906391E+02</rscale>
<asrwt>0</asrwt>
<pdfrwt beam="2">  1        2 0.99365985E+00 0.14906391E+02</pdfrwt>
<pdfrwt beam="1">  1       -2 0.98562483E+00 0.14906391E+02</pdfrwt>
<totfact> 0.45283036E-13</totfact>
</mgrwt>
</event>
<event>
 4    1  0.5245809E-019  0.1490579E+02  0.7818608E-02  0.1870957E+00
         -2   -1    0    0    0  501 -0.00000000000E+00  0.00000000000E+00  0.11831419612E+03  0.11831419615E+03  0.25500000000E-02 0.  1.
          2   -1    0    0  501    0  0.00000000000E+00 -0.00000000000E+00 -0.46947226180E+00  0.46947918708E+00  0.25500000000E-02 0. -1.
         31    1    1    2    0    0 -0.27787804341E+00  0.53977272109E-02  0.58146674601E+02  0.58622281929E+02  0.74470750000E+01 0.  1.
        -31    1    1    2    0    0  0.27787804341E+00 -0.53977272109E-02  0.59698049262E+02  0.60161393410E+02  0.74470750000E+01 0.  1.
<mgrwt>
<rscale>  0 0.14905790E+02</rscale>
<asrwt>0</asrwt>
<pdfrwt beam="2">  1        2 0.99705800E+00 0.14905790E+02</pdfrwt>
<pdfrwt beam="1">  1       -2 0.98218654E+00 0.14905790E+02</pdfrwt>
<totfact> 0.68873546E-13</totfact>
</mgrwt>
</event>
<event>
 4    1 -0.5245809E-019  0.1496279E+02  0.7818608E-02  0.1869206E+00
          2   -1    0    0  501    0  0.00000000000E+00  0.00000000000E+00  0.11976496083E+03  0.11976496086E+03  0.25500000000E-02 0. -1.
         -2   -1    0    0    0  501 -0.00000000000E+00 -0.00000000000E+00 -0.46733936504E+00  0.46734632193E+00  0.25500000000E-02 0.  1.
         31    1    1    2    0    0  0.52255060643E+00  0.12972927656E+00  0.55858633126E+02  0.56355440816E+02  0.74470750000E+01 0. -1.
        -31    1    1    2    0    0 -0.52255060643E+00 -0.12972927656E+00  0.63438988339E+02  0.63876866363E+02  0.74470750000E+01 0. -1.
<mgrwt>
<rscale>  0 0.14962794E+02</rscale>
<asrwt>0</asrwt>
<pdfrwt beam="1">  1        2 0.99416484E+00 0.14962794E+02</pdfrwt>
<pdfrwt beam="2">  1       -2 0.99259338E+00 0.14962794E+02</pdfrwt>
<totfact>-0.10248464E-13</totfact>
</mgrwt>
</event>
<event>
 4    1  0.5245809E-019  0.1489622E+02  0.7818608E-02  0.1871252E+00
          2   -1    0    0  501    0  0.00000000000E+00  0.00000000000E+00  0.12035436456E+03  0.12035436458E+03  0.25500000000E-02 0.  1.
         -2   -1    0    0    0  501 -0.00000000000E+00 -0.00000000000E+00 -0.46092147642E+00  0.46092853017E+00  0.25500000000E-02 0. -1.
         31    1    1    2    0    0  0.72897119908E-01 -0.95783580985E-01  0.60193338115E+02  0.60652381388E+02  0.74470750000E+01 0. -1.
        -31    1    1    2    0    0 -0.72897119908E-01  0.95783580985E-01  0.59700104966E+02  0.60162911727E+02  0.74470750000E+01 0. -1.
<mgrwt>
<rscale>  0 0.14896220E+02</rscale>
<asrwt>0</asrwt>
<pdfrwt beam="1">  1        2 0.99898537E+00 0.14896220E+02</pdfrwt>
<pdfrwt beam="2">  1       -2 0.97903312E+00 0.14896220E+02</pdfrwt>
<totfact> 0.51453507E-13</totfact>
</mgrwt>
</event>
<event>
 4    1  0.5245809E-019  0.1494399E+02  0.7818608E-02  0.1869782E+00
         -2   -1    0    0    0  501 -0.00000000000E+00  0.00000000000E+00  0.11864229524E+03  0.11864229527E+03  0.25500000000E-02 0.  1.
          2   -1    0    0  501    0  0.00000000000E+00 -0.00000000000E+00 -0.47057673824E+00  0.47058364726E+00  0.25500000000E-02 0. -1.
         31    1    1    2    0    0  0.40673441159E+00 -0.36980565808E+00  0.61188687448E+02  0.61642652334E+02  0.74470750000E+01 0.  1.
        -31    1    1    2    0    0 -0.40673441159E+00  0.36980565808E+00  0.56983031058E+02  0.57470226585E+02  0.74470750000E+01 0. -1.
<mgrwt>
<rscale>  0 0.14943991E+02</rscale>
<asrwt>0</asrwt>
<pdfrwt beam="2">  1        2 0.99940529E+00 0.14943991E+02</pdfrwt>
<pdfrwt beam="1">  1       -2 0.98490862E+00 0.14943991E+02</pdfrwt>
<totfact> 0.94922329E-14</totfact>
</mgrwt>
</event>
<event>
 4    1 -0.5245809E-019  0.1500696E+02  0.7818608E-02  0.1867856E+00
         -2   -1    0    0    0  501 -0.00000000000E+00  0.00000000000E+00  0.12029571829E+03  0.12029571832E+03  0.25500000000E-02 0.  1.
          2   -1    0    0  501    0  0.00000000000E+00 -0.00000000000E+00 -0.46802815540E+00  0.46803510205E+00  0.25500000000E-02 0. -1.
         31    1    1    2    0    0  0.23675064332E+00 -0.23073757670E+00  0.53019575983E+02  0.53541046443E+02  0.74470750000E+01 0. -1.
        -31    1    1    2    0    0 -0.23675064332E+00  0.23073757670E+00  0.66808114152E+02  0.67222706977E+02  0.74470750000E+01 0. -1.
<mgrwt>
<rscale>  0 0.15006959E+02</rscale>
<asrwt>0</asrwt>
<pdfrwt beam="2">  1        2 0.99406768E+00 0.15006959E+02</pdfrwt>
<pdfrwt beam="1">  1       -2 0.99855921E+00 0.15006959E+02</pdfrwt>
<totfact>-0.58619285E-14</totfact>
</mgrwt>
</event>
<event>
 4    1 -0.5245809E-019  0.1496925E+02  0.7818608E-02  0.1869008E+00
         -2   -1    0    0    0  501 -0.00000000000E+00  0.00000000000E+00  0.11994431043E+03  0.11994431045E+03  0.25500000000E-02 0.  1.
          2   -1    0    0  501    0  0.00000000000E+00 -0.00000000000E+00 -0.46704302688E+00  0.46704998817E+00  0.25500000000E-02 0. -1.
         31    1    1    2    0    0 -0.44573915617E+00 -0.47674220848E+00  0.56786593473E+02  0.57276540493E+02  0.74470750000E+01 0.  1.
        -31    1    1    2    0    0  0.44573915617E+00  0.47674220848E+00  0.62690673927E+02  0.63134819949E+02  0.74470750000E+01 0. -1.
<mgrwt>
<rscale>  0 0.14969245E+02</rscale>
<asrwt>0</asrwt>
<pdfrwt beam="2">  1        2 0.99197220E+00 0.14969245E+02</pdfrwt>
<pdfrwt beam="1">  1       -2 0.99564538E+00 0.14969245E+02</pdfrwt>
<totfact>-0.14701160E-13</totfact>
</mgrwt>
</event>
<event>
 4    1 -0.5245809E-019  0.1492119E+02  0.7818608E-02  0.1870483E+00
         -2   -1    0    0    0  501 -0.00000000000E+00  0.00000000000E+00  0.12026116470E+03  0.12026116473E+03  0.25500000000E-02 0. -1.
          2   -1    0    0  501    0  0.00000000000E+00 -0.00000000000E+00 -0.46282638342E+00  0.46283340814E+00  0.25500000000E-02 0.  1.
         31    1    1    2    0    0  0.26586922111E+00 -0.26262295588E+00  0.61911842539E+02  0.62359240132E+02  0.74470750000E+01 0. -1.
        -31    1    1    2    0    0 -0.26586922111E+00  0.26262295588E+00  0.57886495777E+02  0.58364758002E+02  0.74470750000E+01 0.  1.
<mgrwt>
<rscale>  0 0.14921188E+02</rscale>
<asrwt>0</asrwt>
<pdfrwt beam="2">  1        2 0.98306081E+00 0.14921188E+02</pdfrwt>
<pdfrwt beam="1">  1       -2 0.99823048E+00 0.14921188E+02</pdfrwt>
<totfact>-0.25761984E-13</totfact>
</mgrwt>
</event>
<event>
 4    1 -0.5245809E-019  0.1491301E+02  0.7818608E-02  0.1870735E+00
          2   -1    0    0  501    0  0.00000000000E+00  0.00000000000E+00  0.11861581237E+03  0.11861581240E+03  0.25500000000E-02 0.  1.
         -2   -1    0    0    0  501 -0.00000000000E+00 -0.00000000000E+00 -0.46873241817E+00  0.46873935438E+00  0.25500000000E-02 0. -1.
         31    1    1    2    0    0 -0.25982487963E+00 -0.10565376938E+00  0.61060148906E+02  0.61513245583E+02  0.74470750000E+01 0.  1.
        -31    1    1    2    0    0  0.25982487963E+00  0.10565376938E+00  0.57086931050E+02  0.57571306173E+02  0.74470750000E+01 0. -1.
<mgrwt>
<rscale>  0 0.14913013E+02</rscale>
<asrwt>0</asrwt>
<pdfrwt beam="1">  1        2 0.98467439E+00 0.14913013E+02</pdfrwt>
<pdfrwt beam="2">  1       -2 0.99550294E+00 0.14913013E+02</pdfrwt>
<totfact>-0.35834646E-13</totfact>
</mgrwt>
</event>
<event>
 4    1 -0.5245809E-019  0.1491094E+02  0.7818608E-02  0.1870798E+00
          2   -1    0    0  501    0  0.00000000000E+00  0.00000000000E+00  0.11861179296E+03  0.11861179299E+03  0.25500000000E-02 0. -1.
         -2   -1    0    0    0  501 -0.00000000000E+00 -0.00000000000E+00 -0.46861792944E+00  0.46862486735E+00  0.25500000000E-02 0.  1.
         31    1    1    2    0    0 -0.21924495853E+00 -0.18025427376E+00  0.57386129590E+02  0.57868016687E+02  0.74470750000E+01 0.  1.
        -31    1    1    2    0    0  0.21924495853E+00  0.18025427376E+00  0.60757045442E+02  0.61212401169E+02  0.74470750000E+01 0.  1.
<mgrwt>
<rscale>  0 0.14910939E+02</rscale>
<asrwt>0</asrwt>
<pdfrwt beam="1">  1        2 0.98464021E+00 0.14910939E+02</pdfrwt>
<pdfrwt beam="2">  1       -2 0.99526062E+00 0.14910939E+02</pdfrwt>
<totfact>-0.36503533E-13</totfact>
</mgrwt>
</event>
<event>
 4    1  0.5245809E-019  0.1493089E+02  0.7818608E-02  0.1870185E+00
          2   -1    0    0  501    0  0.00000000000E+00  0.00000000000E+00  0.12016438008E+03  0.12016438011E+03  0.25500000000E-02 0.  1.
         -2   -1    0    0    0  501 -0.00000000000E+00 -0.00000000000E+00 -0.46380168822E+00  0.46380869817E+00  0.25500000000E-02 0. -1.
         31    1    1    2    0    0 -0.14826483107E+00 -0.37353330280E+00  0.57141305375E+02  0.57625942210E+02  0.74470750000E+01 0. -1.
        -31    1    1    2    0    0  0.14826483107E+00  0.37353330280E+00  0.62559273017E+02  0.63002246596E+02  0.74470750000E+01 0.  1.
<mgrwt>
<rscale>  0 0.14930890E+02</rscale>
<asrwt>0</asrwt>
<pdfrwt beam="1">  1        2 0.99743826E+00 0.14930890E+02</pdfrwt>
<pdfrwt beam="2">  1       -2 0.98512135E+00 0.14930890E+02</pdfrwt>
<totfact> 0.30968858E-13</totfact>
</mgrwt>
</event>
<event>
 4    1  0.5245809E-019  0.1491135E+02  0.7818608E-02  0.1870786E+00
          2   -1    0    0  501    0  0.00000000000E+00  0.00000000000E+00  0.12033067647E+03  0.12033067649E+03  0.25500000000E-02 0. -1.
         -2   -1    0    0    0  501 -0.00000000000E+00 -0.00000000000E+00 -0.46194917333E+00  0.46195621138E+00  0.25500000000E-02 0.  1.
         31    1    1    2    0    0 -0.41773123882E-01 -0.48723713394E-01  0.57081367463E+02  0.57565141852E+02  0.74470750000E+01 0.  1.
        -31    1    1    2    0    0  0.41773123882E-01  0.48723713394E-01  0.62787359830E+02  0.63227490852E+02  0.74470750000E+01 0. -1.
<mgrwt>
<rscale>  0 0.14911349E+02</rscale>
<asrwt>0</asrwt>
<pdfrwt beam="1">  1        2 0.99879800E+00 0.14911349E+02</pdfrwt>
<pdfrwt beam="2">  1       -2 0.98120691E+00 0.14911349E+02</pdfrwt>
<totfact> 0.41213830E-13</totfact>
</mgrwt>
</event>
<event>
 4    1  0.5245809E-019  0.1492355E+02  0.7818608E-02  0.1870410E+00
         -2   -1    0    0    0  501 -0.00000000000E+00  0.00000000000E+00  0.11892968724E+03  0.11892968726E+03  0.25500000000E-02 0. -1.
          2   -1    0    0  501    0  0.00000000000E+00 -0.00000000000E+00 -0.46815604219E+00  0.46816298693E+00  0.25500000000E-02 0.  1.
         31    1    1    2    0    0  0.27671599279E+00 -0.10600200802E+00  0.56331336532E+02  0.56822233410E+02  0.74470750000E+01 0.  1.
        -31    1    1    2    0    0 -0.27671599279E+00  0.10600200802E+00  0.62130194661E+02  0.62575616840E+02  0.74470750000E+01 0. -1.
<mgrwt>
<rscale>  0 0.14923548E+02</rscale>
<asrwt>0</asrwt>
<pdfrwt beam="2">  1        2 0.99429397E+00 0.14923548E+02</pdfrwt>
<pdfrwt beam="1">  1       -2 0.98726496E+00 0.14923548E+02</pdfrwt>
<totfact> 0.23416259E-13</totfact>
</mgrwt>
</event>
<event>
 4    1 -0.5245809E-019  0.1499784E+02  0.7818608E-02  0.1868134E+00
          2   -1    0    0  501    0  0.00000000000E+00  0.00000000000E+00  0.12021348096E+03  0.12021348099E+03  0.25500000000E-02 0. -1.
         -2   -1    0    0    0  501 -0.00000000000E+00 -0.00000000000E+00 -0.46777916193E+00  0.46778611227E+00  0.25500000000E-02 0.  1.
         31    1    1    2    0    0 -0.61954733083E+00 -0.47043365573E+00  0.63187705245E+02  0.63629789933E+02  0.74470750000E+01 0. -1.
        -31    1    1    2    0    0  0.61954733083E+00  0.47043365573E+00  0.56557996555E+02  0.57051477168E+02  0.74470750000E+01 0.  1.
<mgrwt>
<rscale>  0 0.14997837E+02</rscale>
<asrwt>0</asrwt>
<pdfrwt beam="1">  1        2 0.99787715E+00 0.14997837E+02</pdfrwt>
<pdfrwt beam="2">  1       -2 0.99353825E+00 0.14997837E+02</pdfrwt>
<totfact>-0.64389297E-14</totfact>
</mgrwt>
</event>
<event>
 4    1  0.5245809E-019  0.1492594E+02  0.7818608E-02  0.1870337E+00
         -2   -1    0    0    0  501 -0.00000000000E+00  0.00000000000E+00  0.11830654173E+03  0.11830654176E+03  0.25500000000E-02 0. -1.
          2   -1    0    0  501    0  0.00000000000E+00 -0.00000000000E+00 -0.47077312133E+00  0.47078002747E+00  0.25500000000E-02 0.  1.
         31    1    1    2    0    0 -0.33831248822E+00  0.29849011677E+00  0.60373830213E+02  0.60833065452E+02  0.74470750000E+01 0. -1.
        -31    1    1    2    0    0  0.33831248822E+00 -0.29849011677E+00  0.57461938394E+02  0.57944256331E+02  0.74470750000E+01 0.  1.
<mgrwt>
<rscale>  0 0.14925944E+02</rscale>
<asrwt>0</asrwt>
<pdfrwt beam="2">  1        2 0.99980950E+00 0.14925944E+02</pdfrwt>
<pdfrwt beam="1">  1       -2 0.98213400E+00 0.14925944E+02</pdfrwt>
<totfact> 0.61069111E-14</totfact>
</mgrwt>
</event>
<event>
 4    1  0.5245809E-019  0.1492862E+02  0.7818608E-02  0.1870255E+00
         -2   -1    0    0    0  501 -0.00000000000E+00  0.00000000000E+00  0.11890096584E+03  0.11890096587E+03  0.25500000000E-02 0.  1.
          2   -1    0    0  501    0  0.00000000000E+00 -0.00000000000E+00 -0.46858751526E+00  0.46859445361E+00  0.25500000000E-02 0. -1.
         31    1    1    2    0    0 -0.45388446046E+00 -0.11644589558E+00  0.57669272438E+02  0.58150008429E+02  0.74470750000E+01 0. -1.
        -31    1    1    2    0    0  0.45388446046E+00  0.11644589558E+00  0.60763105888E+02  0.61219551893E+02  0.74470750000E+01 0. -1.
<mgrwt>
<rscale>  0 0.14928620E+02</rscale>
<asrwt>0</asrwt>
<pdfrwt beam="2">  1        2 0.99520580E+00 0.14928620E+02</pdfrwt>
<pdfrwt beam="1">  1       -2 0.98703104E+00 0.14928620E+02</pdfrwt>
<totfact> 0.23731891E-13</totfact>
</mgrwt>
</event>
<event>
 4    1 -0.5245809E-019  0.1498681E+02  0.7818608E-02  0.1868471E+00
          2   -1    0    0  501    0  0.00000000000E+00  0.00000000000E+00  0.11974127470E+03  0.11974127472E+03  0.25500000000E-02 0. -1.
         -2   -1    0    0    0  501 -0.00000000000E+00 -0.00000000000E+00 -0.46893326706E+00  0.46894020030E+00  0.25500000000E-02 0.  1.
         31    1    1    2    0    0 -0.37971307746E+00  0.38058733686E+00  0.54543386947E+02  0.55052057313E+02  0.74470750000E+01 0.  1.
        -31    1    1    2    0    0  0.37971307746E+00 -0.38058733686E+00  0.64728954481E+02  0.65158157609E+02  0.74470750000E+01 0. -1.
<mgrwt>
<rscale>  0 0.14986806E+02</rscale>
<asrwt>0</asrwt>
<pdfrwt beam="1">  1        2 0.99398216E+00 0.14986806E+02</pdfrwt>
<pdfrwt beam="2">  1       -2 0.99596469E+00 0.14986806E+02</pdfrwt>
<totfact>-0.12321837E-13</totfact>
</mgrwt>
</event>
<event>
 4    1 -0.5245809E-019  0.1497514E+02  0.7818608E-02  0.1868828E+00
          2   -1    0    0  501    0  0.00000000000E+00  0.00000000000E+00  0.11932469425E+03  0.11932469428E+03  0.25500000000E-02 0.  1.
         -2   -1    0    0    0  501 -0.00000000000E+00 -0.00000000000E+00 -0.46983779727E+00  0.46984471716E+00  0.25500000000E-02 0. -1.
         31    1    1    2    0    0  0.24589922175E+00 -0.21693014009E+00  0.53786650101E+02  0.54300738303E+02  0.74470750000E+01 0. -1.
        -31    1    1    2    0    0 -0.24589922175E+00  0.21693014009E+00  0.65068206352E+02  0.65493800692E+02  0.74470750000E+01 0.  1.
<mgrwt>
<rscale>  0 0.14975135E+02</rscale>
<asrwt>0</asrwt>
<pdfrwt beam="1">  1        2 0.99054506E+00 0.14975135E+02</pdfrwt>
<pdfrwt beam="2">  1       -2 0.99786466E+00 0.14975135E+02</pdfrwt>
<totfact>-0.10639142E-13</totfact>
</mgrwt>
</event>
<event>
 4    1 -0.5245809E-019  0.1502167E+02  0.7818608E-02  0.1867408E+00
          2   -1    0    0  501    0  0.00000000000E+00  0.00000000000E+00  0.12024659233E+03  0.12024659236E+03  0.25500000000E-02 0.  1.
         -2   -1    0    0    0  501 -0.00000000000E+00 -0.00000000000E+00 -0.46913777790E+00  0.46914470812E+00  0.25500000000E-02 0. -1.
         31    1    1    2    0    0  0.78629430681E+00  0.51707081007E+00  0.61985705131E+02  0.62438547289E+02  0.74470750000E+01 0. -1.
        -31    1    1    2    0    0 -0.78629430681E+00 -0.51707081007E+00  0.57791749421E+02  0.58277189775E+02  0.74470750000E+01 0.  1.
<mgrwt>
<rscale>  0 0.15021670E+02</rscale>
<asrwt>0</asrwt>
<pdfrwt beam="1">  1        2 0.99816217E+00 0.15021670E+02</pdfrwt>
<pdfrwt beam="2">  1       -2 0.99641369E+00 0.15021670E+02</pdfrwt>
<totfact>-0.54572770E-14</totfact>
</mgrwt>
</event>
<event>
 4    1 -0.5245809E-019  0.1490839E+02  0.7818608E-02  0.1870877E+00
         -2   -1    0    0    0  501 -0.00000000000E+00  0.00000000000E+00  0.12031376985E+03  0.12031376988E+03  0.25500000000E-02 0.  1.
          2   -1    0    0  501    0  0.00000000000E+00 -0.00000000000E+00 -0.46183063571E+00  0.46183767558E+00  0.25500000000E-02 0. -1.
         31    1    1    2    0    0 -0.29136771793E+00  0.10194713760E+00  0.60767758197E+02  0.61223154531E+02  0.74470750000E+01 0.  1.
        -31    1    1    2    0    0  0.29136771793E+00 -0.10194713760E+00  0.59084181016E+02  0.59552453021E+02  0.74470750000E+01 0. -1.
<mgrwt>
<rscale>  0 0.14908388E+02</rscale>
<asrwt>0</asrwt>
<pdfrwt beam="2">  1        2 0.98095557E+00 0.14908388E+02</pdfrwt>
<pdfrwt beam="1">  1       -2 0.99865723E+00 0.14908388E+02</pdfrwt>
<totfact>-0.28972106E-13</totfact>
</mgrwt>
</event>
<event>
 4    1 -0.5245809E-019  0.1497319E+02  0.7818608E-02  0.1868888E+00
          2   -1    0    0  501    0  0.00000000000E+00  0.00000000000E+00  0.11956665432E+03  0.11956665435E+03  0.25500000000E-02 0.  1.
         -2   -1    0    0    0  501 -0.00000000000E+00 -0.00000000000E+00 -0.46876528121E+00  0.46877221693E+00  0.25500000000E-02 0. -1.
         31    1    1    2    0    0  0.55512015036E+00  0.49813515400E+00  0.61024781298E+02  0.61482023028E+02  0.74470750000E+01 0.  1.
        -31    1    1    2    0    0 -0.55512015036E+00 -0.49813515400E+00  0.58073107745E+02  0.58553403541E+02  0.74470750000E+01 0.  1.
<mgrwt>
<rscale>  0 0.14973191E+02</rscale>
<asrwt>0</asrwt>
<pdfrwt beam="1">  1        2 0.99253689E+00 0.14973191E+02</pdfrwt>
<pdfrwt beam="2">  1       -2 0.99560363E+00 0.14973191E+02</pdfrwt>
<totfact>-0.14157080E-13</totfact>
</mgrwt>
</event>
<event>
 4    1  0.5245809E-019  0.1490521E+02  0.7818608E-02  0.1870975E+00
          2   -1    0    0  501    0  0.00000000000E+00  0.00000000000E+00  0.11978346083E+03  0.11978346086E+03  0.25500000000E-02 0.  1.
         -2   -1    0    0    0  501 -0.00000000000E+00 -0.00000000000E+00 -0.46367769027E+00  0.46368470209E+00  0.25500000000E-02 0. -1.
         31    1    1    2    0    0  0.15505426272E+00  0.22431913380E+00  0.60383929682E+02  0.60842027011E+02  0.74470750000E+01 0. -1.
        -31    1    1    2    0    0 -0.15505426272E+00 -0.22431913380E+00  0.58935853460E+02  0.59405118551E+02  0.74470750000E+01 0. -1.
<mgrwt>
<rscale>  0 0.14905213E+02</rscale>
<asrwt>0</asrwt>
<pdfrwt beam="1">  1        2 0.99428753E+00 0.14905213E+02</pdfrwt>
<pdfrwt beam="2">  1       -2 0.98484696E+00 0.14905213E+02</pdfrwt>
<totfact> 0.54094445E-13</totfact>
</mgrwt>
</event>
<event>
 4    1 -0.5245809E-019  0.1494317E+02  0.7818608E-02  0.1869808E+00
         -2   -1    0    0    0  501 -0.00000000000E+00  0.00000000000E+00  0.11976209702E+03  0.11976209705E+03  0.25500000000E-02 0.  1.
          2   -1    0    0  501    0  0.00000000000E+00 -0.00000000000E+00 -0.46612521865E+00  0.46613219366E+00  0.25500000000E-02 0. -1.
         31    1    1    2    0    0  0.23038573169E-01  0.34180578730E+00  0.55639107013E+02  0.56136320838E+02  0.74470750000E+01 0. -1.
        -31    1    1    2    0    0 -0.23038573169E-01 -0.34180578730E+00  0.63656864790E+02  0.64091908405E+02  0.74470750000E+01 0.  1.
<mgrwt>
<rscale>  0 0.14943166E+02</rscale>
<asrwt>0</asrwt>
<pdfrwt beam="2">  1        2 0.99002457E+00 0.14943166E+02</pdfrwt>
<pdfrwt beam="1">  1       -2 0.99413112E+00 0.14943166E+02</pdfrwt>
<totfact>-0.17572040E-13</totfact>
</mgrwt>
</event>
<event>
 4    1  0.5245809E-019  0.1494463E+02  0.7818608E-02  0.1869763E+00
          2   -1    0    0  501    0  0.00000000000E+00  0.00000000000E+00  0.12001300834E+03  0.12001300837E+03  0.25500000000E-02 0. -1.
         -2   -1    0    0    0  501 -0.00000000000E+00 -0.00000000000E+00 -0.46524153854E+00  0.46524852679E+00  0.25500000000E-02 0.  1.
         31    1    1    2    0    0  0.47729451208E+00 -0.12716760763E+00  0.56838829942E+02  0.57326743296E+02  0.74470750000E+01 0.  1.
        -31    1    1    2    0    0 -0.47729451208E+00  0.12716760763E+00  0.62708936861E+02  0.63151513599E+02  0.74470750000E+01 0.  1.
<mgrwt>
<rscale>  0 0.14944626E+02</rscale>
<asrwt>0</asrwt>
<pdfrwt beam="1">  1        2 0.99619852E+00 0.14944626E+02</pdfrwt>
<pdfrwt beam="2">  1       -2 0.98816297E+00 0.14944626E+02</pdfrwt>
<totfact> 0.11798391E-13</totfact>
</mgrwt>
</event>
<event>
 4    1 -0.5245809E-019  0.1499091E+02  0.7818608E-02  0.1868346E+00
          2   -1    0    0  501    0  0.00000000000E+00  0.00000000000E+00  0.12019916812E+03  0.12019916815E+03  0.25500000000E-02 0. -1.
         -2   -1    0    0    0  501 -0.00000000000E+00 -0.00000000000E+00 -0.46740277662E+00  0.46740973256E+00  0.25500000000E-02 0.  1.
         31    1    1    2    0    0  0.61099777390E+00  0.76521629103E-01  0.64585187590E+02  0.65016033068E+02  0.74470750000E+01 0. -1.
        -31    1    1    2    0    0 -0.61099777390E+00 -0.76521629103E-01  0.55146577756E+02  0.55650544814E+02  0.74470750000E+01 0. -1.
<mgrwt>
<rscale>  0 0.14990910E+02</rscale>
<asrwt>0</asrwt>
<pdfrwt beam="1">  1        2 0.99775569E+00 0.14990910E+02</pdfrwt>
<pdfrwt beam="2">  1       -2 0.99274148E+00 0.14990910E+02</pdfrwt>
<totfact>-0.58918371E-14</totfact>
</mgrwt>
</event>
<event>
 4    1 -0.5245809E-019  0.1498092E+02  0.7818608E-02  0.1868651E+00
          2   -1    0    0  501    0  0.00000000000E+00  0.00000000000E+00  0.11970479646E+03  0.11970479649E+03  0.25500000000E-02 0. -1.
         -2   -1    0    0    0  501 -0.00000000000E+00 -0.00000000000E+00 -0.46870758545E+00  0.46871452202E+00  0.25500000000E-02 0.  1.
         31    1    1    2    0    0 -0.18433883447E+00  0.62080230927E+00  0.55782142171E+02  0.56280775471E+02  0.74470750000E+01 0.  1.
        -31    1    1    2    0    0  0.18433883447E+00 -0.62080230927E+00  0.63453946707E+02  0.63892735542E+02  0.74470750000E+01 0.  1.
<mgrwt>
<rscale>  0 0.14980916E+02</rscale>
<asrwt>0</asrwt>
<pdfrwt beam="1">  1        2 0.99367867E+00 0.14980916E+02</pdfrwt>
<pdfrwt beam="2">  1       -2 0.99548606E+00 0.14980916E+02</pdfrwt>
<totfact>-0.13127396E-13</totfact>
</mgrwt>
</event>
<event>
 4    1 -0.5245809E-019  0.1495243E+02  0.7818608E-02  0.1869524E+00
         -2   -1    0    0    0  501 -0.00000000000E+00  0.00000000000E+00  0.11992107759E+03  0.11992107761E+03  0.25500000000E-02 0. -1.
          2   -1    0    0  501    0  0.00000000000E+00 -0.00000000000E+00 -0.46608452441E+00  0.46609150003E+00  0.25500000000E-02 0.  1.
         31    1    1    2    0    0 -0.53790293415E+00 -0.33442411240E+00  0.61204974907E+02  0.61659622594E+02  0.74470750000E+01 0.  1.
        -31    1    1    2    0    0  0.53790293415E+00  0.33442411240E+00  0.58250018155E+02  0.58727546519E+02  0.74470750000E+01 0.  1.
<mgrwt>
<rscale>  0 0.14952429E+02</rscale>
<asrwt>0</asrwt>
<pdfrwt beam="2">  1        2 0.98994356E+00 0.14952429E+02</pdfrwt>
<pdfrwt beam="1">  1       -2 0.99544534E+00 0.14952429E+02</pdfrwt>
<totfact>-0.17637132E-13</totfact>
</mgrwt>
</event>
<event>
 4    1 -0.5245809E-019  0.1497168E+02  0.7818608E-02  0.1868934E+00
         -2   -1    0    0    0  501 -0.00000000000E+00  0.00000000000E+00  0.11979775552E+03  0.11979775555E+03  0.25500000000E-02 0. -1.
          2   -1    0    0  501    0  0.00000000000E+00 -0.00000000000E+00 -0.46776678626E+00  0.46777373678E+00  0.25500000000E-02 0.  1.
         31    1    1    2    0    0  0.74439372495E-01  0.68450592968E+00  0.57064341872E+02  0.57552342515E+02  0.74470750000E+01 0.  1.
        -31    1    1    2    0    0 -0.74439372495E-01 -0.68450592968E+00  0.62265646864E+02  0.62713186771E+02  0.74470750000E+01 0. -1.
<mgrwt>
<rscale>  0 0.14971684E+02</rscale>
<asrwt>0</asrwt>
<pdfrwt beam="2">  1        2 0.99349870E+00 0.14971684E+02</pdfrwt>
<pdfrwt beam="1">  1       -2 0.99443954E+00 0.14971684E+02</pdfrwt>
<totfact>-0.13559502E-13</totfact>
</mgrwt>
</event>
<event>
 4    1  0.5245809E-019  0.1491726E+02  0.7818608E-02  0.1870604E+00
          2   -1    0    0  501    0  0.00000000000E+00  0.00000000000E+00  0.12034027592E+03  0.12034027595E+03  0.25500000000E-02 0. -1.
         -2   -1    0    0    0  501 -0.00000000000E+00 -0.00000000000E+00 -0.46227881858E+00  0.46228585162E+00  0.25500000000E-02 0.  1.
         31    1    1    2    0    0 -0.13811214640E-01 -0.41377581157E+00  0.59701542509E+02  0.60165642232E+02  0.74470750000E+01 0. -1.
        -31    1    1    2    0    0  0.13811214640E-01  0.41377581157E+00  0.60176454594E+02  0.60636919569E+02  0.74470750000E+01 0. -1.
<mgrwt>
<rscale>  0 0.14917263E+02</rscale>
<asrwt>0</asrwt>
<pdfrwt beam="1">  1        2 0.99888010E+00 0.14917263E+02</pdfrwt>
<pdfrwt beam="2">  1       -2 0.98190470E+00 0.14917263E+02</pdfrwt>
<totfact> 0.33910112E-13</totfact>
</mgrwt>
</event>
<event>
 4    1 -0.5245809E-019  0.1500257E+02  0.7818608E-02  0.1867990E+00
         -2   -1    0    0    0  501 -0.00000000000E+00  0.00000000000E+00  0.11970035389E+03  0.11970035391E+03  0.25500000000E-02 0. -1.
          2   -1    0    0  501    0  0.00000000000E+00 -0.00000000000E+00 -0.47008078400E+00  0.47008770031E+00  0.25500000000E-02 0.  1.
         31    1    1    2    0    0  0.48961561608E+00  0.78378559700E-01  0.53597181525E+02  0.54114348006E+02  0.74470750000E+01 0.  1.
        -31    1    1    2    0    0 -0.48961561608E+00 -0.78378559700E-01  0.65633091577E+02  0.66056093608E+02  0.74470750000E+01 0. -1.
<mgrwt>
<rscale>  0 0.15002567E+02</rscale>
<asrwt>0</asrwt>
<pdfrwt beam="2">  1        2 0.99839099E+00 0.15002567E+02</pdfrwt>
<pdfrwt beam="1">  1       -2 0.99365329E+00 0.15002567E+02</pdfrwt>
<totfact>-0.52300343E-14</totfact>
</mgrwt>
</event>
<event>
 4    1 -0.5245809E-019  0.1496107E+02  0.7818608E-02  0.1869259E+00
         -2   -1    0    0    0  501 -0.00000000000E+00  0.00000000000E+00  0.11999918331E+03  0.11999918334E+03  0.25500000000E-02 0.  1.
          2   -1    0    0  501    0  0.00000000000E+00 -0.00000000000E+00 -0.46631943488E+00  0.46632640698E+00  0.25500000000E-02 0. -1.
         31    1    1    2    0    0  0.12891469734E+00  0.69223708727E+00  0.60251936702E+02  0.60714500851E+02  0.74470750000E+01 0.  1.
        -31    1    1    2    0    0 -0.12891469734E+00 -0.69223708727E+00  0.59280927174E+02  0.59751008894E+02  0.74470750000E+01 0. -1.
<mgrwt>
<rscale>  0 0.14961066E+02</rscale>
<asrwt>0</asrwt>
<pdfrwt beam="2">  1        2 0.99044306E+00 0.14961066E+02</pdfrwt>
<pdfrwt beam="1">  1       -2 0.99609312E+00 0.14961066E+02</pdfrwt>
<totfact>-0.15922014E-13</totfact>
</mgrwt>
</event>
<event>
 4    1 -0.5245809E-019  0.1494102E+02  0.7818608E-02  0.1869874E+00
          2   -1    0    0  501    0  0.00000000000E+00  0.00000000000E+00  0.11892485120E+03  0.11892485123E+03  0.25500000000E-02 0.  1.
         -2   -1    0    0    0  501 -0.00000000000E+00 -0.00000000000E+00 -0.46927227781E+00  0.46927920604E+00  0.25500000000E-02 0. -1.
         31    1    1    2    0    0  0.23572798050E+00 -0.53878892726E+00  0.59718037064E+02  0.60183459007E+02  0.74470750000E+01 0. -1.
        -31    1    1    2    0    0 -0.23572798050E+00  0.53878892726E+00  0.58737541857E+02  0.59210671425E+02  0.74470750000E+01 0. -1.
<mgrwt>
<rscale>  0 0.14941024E+02</rscale>
<asrwt>0</asrwt>
<pdfrwt beam="1">  1        2 0.98723421E+00 0.14941024E+02</pdfrwt>
<pdfrwt beam="2">  1       -2 0.99665518E+00 0.14941024E+02</pdfrwt>
<totfact>-0.21176377E-13</totfact>
</mgrwt>
</event>
<event>
 4    1 -0.5245809E-019  0.1500252E+02  0.7818608E-02  0.1867992E+00
         -2   -1    0    0    0  501 -0.00000000000E+00  0.00000000000E+00  0.11992805593E+03  0.11992805596E+03  0.25500000000E-02 0. -1.
          2   -1    0    0  501    0  0.00000000000E+00 -0.00000000000E+00 -0.46918526116E+00  0.46919219068E+00  0.25500000000E-02 0.  1.
         31    1    1    2    0    0  0.42837624236E+00 -0.36905189179E-01  0.66074373401E+02  0.66494109624E+02  0.74470750000E+01 0.  1.
        -31    1    1    2    0    0 -0.42837624236E+00  0.36905189179E-01  0.53384497266E+02  0.53903138522E+02  0.74470750000E+01 0.  1.
<mgrwt>
<rscale>  0 0.15002519E+02</rscale>
<asrwt>0</asrwt>
<pdfrwt beam="2">  1        2 0.99650386E+00 0.15002519E+02</pdfrwt>
<pdfrwt beam="1">  1       -2 0.99552869E+00 0.15002519E+02</pdfrwt>
<totfact>-0.95074440E-14</totfact>
</mgrwt>
</event>
<event>
 4    1  0.5245809E-019  0.1490130E+02  0.7818608E-02  0.1871095E+00
         -2   -1    0    0    0  501 -0.00000000000E+00  0.00000000000E+00  0.11839448909E+03  0.11839448912E+03  0.25500000000E-02 0.  1.
          2   -1    0    0  501    0  0.00000000000E+00 -0.00000000000E+00 -0.46887111318E+00  0.46887804734E+00  0.25500000000E-02 0. -1.
         31    1    1    2    0    0  0.20408180045E-01  0.13822949597E+00  0.57498051440E+02  0.57978481951E+02  0.74470750000E+01 0. -1.
        -31    1    1    2    0    0 -0.20408180045E-01 -0.13822949597E+00  0.60427566541E+02  0.60884885218E+02  0.74470750000E+01 0.  1.
<mgrwt>
<rscale>  0 0.14901298E+02</rscale>
<asrwt>0</asrwt>
<pdfrwt beam="2">  1        2 0.99578901E+00 0.14901298E+02</pdfrwt>
<pdfrwt beam="1">  1       -2 0.98284548E+00 0.14901298E+02</pdfrwt>
<totfact> 0.75060789E-13</totfact>
</mgrwt>
</event>
<event>
 4    1 -0.5245809E-019  0.1490036E+02  0.7818608E-02  0.1871124E+00
         -2   -1    0    0    0  501 -0.00000000000E+00  0.00000000000E+00  0.11983111644E+03  0.11983111647E+03  0.25500000000E-02 0.  1.
          2   -1    0    0  501    0  0.00000000000E+00 -0.00000000000E+00 -0.46319133742E+00  0.46319835661E+00  0.25500000000E-02 0. -1.
         31    1    1    2    0    0 -0.17222922442E+00  0.11277954620E+00  0.60184941250E+02  0.60644278061E+02  0.74470750000E+01 0.  1.
        -31    1    1    2    0    0  0.17222922442E+00 -0.11277954620E+00  0.59182983853E+02  0.59650036764E+02  0.74470750000E+01 0. -1.
<mgrwt>
<rscale>  0 0.14900357E+02</rscale>
<asrwt>0</asrwt>
<pdfrwt beam="2">  1        2 0.98381945E+00 0.14900357E+02</pdfrwt>
<pdfrwt beam="1">  1       -2 0.99467756E+00 0.14900357E+02</pdfrwt>
<totfact>-0.42290360E-13</totfact>
</mgrwt>
</event>
<event>
 4    1  0.5245809E-019  0.1491088E+02  0.7818608E-02  0.1870800E+00
          2   -1    0    0  501    0  0.00000000000E+00  0.00000000000E+00  0.11952108687E+03  0.11952108690E+03  0.25500000000E-02 0.  1.
         -2   -1    0    0    0  501 -0.00000000000E+00 -0.00000000000E+00 -0.46504897369E+00  0.46505596484E+00  0.25500000000E-02 0. -1.
         31    1    1    2    0    0  0.19075106898E+00 -0.27747473640E+00  0.58673547942E+02  0.59145224088E+02  0.74470750000E+01 0.  1.
        -31    1    1    2    0    0 -0.19075106898E+00  0.27747473640E+00  0.60382489958E+02  0.60840918779E+02  0.74470750000E+01 0. -1.
<mgrwt>
<rscale>  0 0.14910879E+02</rscale>
<asrwt>0</asrwt>
<pdfrwt beam="1">  1        2 0.99212938E+00 0.14910879E+02</pdfrwt>
<pdfrwt beam="2">  1       -2 0.98773986E+00 0.14910879E+02</pdfrwt>
<totfact> 0.21913172E-13</totfact>
</mgrwt>
</event>
<event>
 4    1  0.5245809E-019  0.1493396E+02  0.7818608E-02  0.1870090E+00
          2   -1    0    0  501    0  0.00000000000E+00  0.00000000000E+00  0.12013564064E+03  0.12013564066E+03  0.25500000000E-02 0. -1.
         -2   -1    0    0    0  501 -0.00000000000E+00 -0.00000000000E+00 -0.46410334361E+00  0.46411034900E+00  0.25500000000E-02 0.  1.
         31    1    1    2    0    0  0.22334137704E+00 -0.30615555033E+00  0.62996987749E+02  0.63436763821E+02  0.74470750000E+01 0. -1.
        -31    1    1    2    0    0 -0.22334137704E+00  0.30615555033E+00  0.56674549543E+02  0.57162987190E+02  0.74470750000E+01 0.  1.
<mgrwt>
<rscale>  0 0.14933958E+02</rscale>
<asrwt>0</asrwt>
<pdfrwt beam="1">  1        2 0.99720312E+00 0.14933958E+02</pdfrwt>
<pdfrwt beam="2">  1       -2 0.98575869E+00 0.14933958E+02</pdfrwt>
<totfact> 0.27158310E-13</totfact>
</mgrwt>
</event>
<event>
 4    1  0.5245809E-019  0.1490794E+02  0.7818608E-02  0.1870891E+00
          2   -1    0    0  501    0  0.00000000000E+00  0.00000000000E+00  0.11993395953E+03  0.11993395955E+03  0.25500000000E-02 0. -1.
         -2   -1    0    0    0  501 -0.00000000000E+00 -0.00000000000E+00 -0.46326548583E+00  0.46327250389E+00  0.25500000000E-02 0.  1.
         31    1    1    2    0    0 -0.16661056577E+00  0.25300630279E+00  0.58888678042E+02  0.59358462740E+02  0.74470750000E+01 0.  1.
        -31    1    1    2    0    0  0.16661056577E+00 -0.25300630279E+00  0.60582015997E+02  0.61038769316E+02  0.74470750000E+01 0. -1.
<mgrwt>
<rscale>  0 0.14907943E+02</rscale>
<asrwt>0</asrwt>
<pdfrwt beam="1">  1        2 0.99552855E+00 0.14907943E+02</pdfrwt>
<pdfrwt beam="2">  1       -2 0.98397958E+00 0.14907943E+02</pdfrwt>
<totfact> 0.59770163E-13</totfact>
</mgrwt>
</event>
<event>
 4    1 -0.5245809E-019  0.1491303E+02  0.7818608E-02  0.1870734E+00
         -2   -1    0    0    0  501 -0.00000000000E+00  0.00000000000E+00  0.11957820481E+03  0.11957820484E+03  0.25500000000E-02 0. -1.
          2   -1    0    0  501    0  0.00000000000E+00 -0.00000000000E+00 -0.46496118733E+00  0.46496817979E+00  0.25500000000E-02 0.  1.
         31    1    1    2    0    0  0.35095317442E-01 -0.26854260943E+00  0.61645980242E+02  0.62094759464E+02  0.74470750000E+01 0.  1.
        -31    1    1    2    0    0 -0.35095317442E-01  0.26854260943E+00  0.57467263384E+02  0.57948413557E+02  0.74470750000E+01 0.  1.
<mgrwt>
<rscale>  0 0.14913034E+02</rscale>
<asrwt>0</asrwt>
<pdfrwt beam="2">  1        2 0.98755596E+00 0.14913034E+02</pdfrwt>
<pdfrwt beam="1">  1       -2 0.99260094E+00 0.14913034E+02</pdfrwt>
<totfact>-0.18863138E-13</totfact>
</mgrwt>
</event>
<event>
 4    1  0.5245809E-019  0.1491919E+02  0.7818608E-02  0.1870545E+00
         -2   -1    0    0    0  501 -0.00000000000E+00  0.00000000000E+00  0.11889019199E+03  0.11889019201E+03  0.25500000000E-02 0. -1.
          2   -1    0    0  501    0  0.00000000000E+00 -0.00000000000E+00 -0.46803787739E+00  0.46804482389E+00  0.25500000000E-02 0.  1.
         31    1    1    2    0    0  0.45497594438E-02  0.42418320754E+00  0.58558614767E+02  0.59031773153E+02  0.74470750000E+01 0. -1.
        -31    1    1    2    0    0 -0.45497594438E-02 -0.42418320754E+00  0.59863539342E+02  0.60326463685E+02  0.74470750000E+01 0.  1.
<mgrwt>
<rscale>  0 0.14919186E+02</rscale>
<asrwt>0</asrwt>
<pdfrwt beam="2">  1        2 0.99404270E+00 0.14919186E+02</pdfrwt>
<pdfrwt beam="1">  1       -2 0.98693741E+00 0.14919186E+02</pdfrwt>
<totfact> 0.27518535E-13</totfact>
</mgrwt>
</event>
<event>
 4    1 -0.5245809E-019  0.1490713E+02  0.7818608E-02  0.1870916E+00
         -2   -1    0    0    0  501 -0.00000000000E+00  0.00000000000E+00  0.12009882643E+03  0.12009882645E+03  0.25500000000E-02 0. -1.
          2   -1    0    0  501    0  0.00000000000E+00 -0.00000000000E+00 -0.46257902577E+00  0.46258605425E+00  0.25500000000E-02 0.  1.
         31    1    1    2    0    0 -0.19279696051E+00  0.24237575421E+00  0.59592149566E+02  0.60056466201E+02  0.74470750000E+01 0. -1.
        -31    1    1    2    0    0  0.19279696051E+00 -0.24237575421E+00  0.60044097835E+02  0.60504946306E+02  0.74470750000E+01 0. -1.
<mgrwt>
<rscale>  0 0.14907129E+02</rscale>
<asrwt>0</asrwt>
<pdfrwt beam="2">  1        2 0.98253234E+00 0.14907129E+02</pdfrwt>
<pdfrwt beam="1">  1       -2 0.99688611E+00 0.14907129E+02</pdfrwt>
<totfact>-0.42986642E-13</totfact>
</mgrwt>
</event>
<event>
 4    1 -0.5245809E-019  0.1490581E+02  0.7818608E-02  0.1870956E+00
         -2   -1    0    0    0  501 -0.00000000000E+00  0.00000000000E+00  0.12000104890E+03  0.12000104892E+03  0.25500000000E-02 0. -1.
          2   -1    0    0  501    0  0.00000000000E+00 -0.00000000000E+00 -0.46287427832E+00  0.46288130232E+00  0.25500000000E-02 0.  1.
         31    1    1    2    0    0  0.46391729355E-01  0.78952508870E-01  0.57504604859E+02  0.57984885028E+02  0.74470750000E+01 0.  1.
        -31    1    1    2    0    0 -0.46391729355E-01 -0.78952508870E-01  0.62033569758E+02  0.62479045197E+02  0.74470750000E+01 0. -1.
<mgrwt>
<rscale>  0 0.14905814E+02</rscale>
<asrwt>0</asrwt>
<pdfrwt beam="2">  1        2 0.98315398E+00 0.14905814E+02</pdfrwt>
<pdfrwt beam="1">  1       -2 0.99608006E+00 0.14905814E+02</pdfrwt>
<totfact>-0.43884245E-13</totfact>
</mgrwt>
</event>
<event>
 4    1  0.5245809E-019  0.1490975E+02  0.7818608E-02  0.1870835E+00
         -2   -1    0    0    0  501 -0.00000000000E+00  0.00000000000E+00  0.11818748543E+03  0.11818748545E+03  0.25500000000E-02 0. -1.
          2   -1    0    0  501    0  0.00000000000E+00 -0.00000000000E+00 -0.47022542552E+00  0.47023233971E+00  0.25500000000E-02 0.  1.
         31    1    1    2    0    0 -0.11277713318E+00  0.18404276065E+00  0.56758216352E+02  0.57245092715E+02  0.74470750000E+01 0.  1.
        -31    1    1    2    0    0  0.11277713318E+00 -0.18404276065E+00  0.60959043648E+02  0.61412625078E+02  0.74470750000E+01 0. -1.
<mgrwt>
<rscale>  0 0.14909752E+02</rscale>
<asrwt>0</asrwt>
<pdfrwt beam="2">  1        2 0.99864696E+00 0.14909752E+02</pdfrwt>
<pdfrwt beam="1">  1       -2 0.98114503E+00 0.14909752E+02</pdfrwt>
<totfact> 0.46147103E-13</totfact>
</mgrwt>
</event>
<event>
 4    1  0.5245809E-019  0.1494628E+02  0.7818608E-02  0.1869712E+00
          2   -1    0    0  501    0  0.00000000000E+00  0.00000000000E+00  0.12016828426E+03  0.12016828428E+03  0.25500000000E-02 0. -1.
         -2   -1    0    0    0  501 -0.00000000000E+00 -0.00000000000E+00 -0.46474324589E+00  0.46475024164E+00  0.25500000000E-02 0.  1.
         31    1    1    2    0    0  0.20219741628E+00  0.53683841132E+00  0.61825758479E+02  0.62275295398E+02  0.74470750000E+01 0. -1.
        -31    1    1    2    0    0 -0.20219741628E+00 -0.53683841132E+00  0.57877782531E+02  0.58357739127E+02  0.74470750000E+01 0. -1.
<mgrwt>
<rscale>  0 0.14946280E+02</rscale>
<asrwt>0</asrwt>
<pdfrwt beam="1">  1        2 0.99747833E+00 0.14946280E+02</pdfrwt>
<pdfrwt beam="2">  1       -2 0.98711362E+00 0.14946280E+02</pdfrwt>
<totfact> 0.15313819E-13</totfact>
</mgrwt>
</event>
<event>
 4    1  0.5245809E-019  0.1494118E+02  0.7818608E-02  0.1869869E+00
         -2   -1    0    0    0  501 -0.00000000000E+00  0.00000000000E+00  0.11875999245E+03  0.11875999248E+03  0.25500000000E-02 0.  1.
          2   -1    0    0  501    0  0.00000000000E+00 -0.00000000000E+00 -0.46993335638E+00  0.46994027487E+00  0.25500000000E-02 0. -1.
         31    1    1    2    0    0 -0.24463997607E+00 -0.47405063566E+00  0.57091882124E+02  0.57578003640E+02  0.74470750000E+01 0. -1.
        -31    1    1    2    0    0  0.24463997607E+00  0.47405063566E+00  0.61198176969E+02  0.61651929111E+02  0.74470750000E+01 0. -1.
<mgrwt>
<rscale>  0 0.14941177E+02</rscale>
<asrwt>0</asrwt>
<pdfrwt beam="2">  1        2 0.99804820E+00 0.14941177E+02</pdfrwt>
<pdfrwt beam="1">  1       -2 0.98587650E+00 0.14941177E+02</pdfrwt>
<totfact> 0.20020613E-13</totfact>
</mgrwt>
</event>
<event>
 4    1 -0.5245809E-019  0.1491211E+02  0.7818608E-02  0.1870762E+00
          2   -1    0    0  501    0  0.00000000000E+00  0.00000000000E+00  0.11868509541E+03  0.11868509543E+03  0.25500000000E-02 0. -1.
         -2   -1    0    0    0  501 -0.00000000000E+00 -0.00000000000E+00 -0.46840187695E+00  0.46840881805E+00  0.25500000000E-02 0.  1.
         31    1    1    2    0    0  0.22391111159E-01  0.62713043502E-01  0.56234291519E+02  0.56725293326E+02  0.74470750000E+01 0.  1.
        -31    1    1    2    0    0 -0.22391111159E-01 -0.62713043502E-01  0.61982402011E+02  0.62428210926E+02  0.74470750000E+01 0. -1.
<mgrwt>
<rscale>  0 0.14912107E+02</rscale>
<asrwt>0</asrwt>
<pdfrwt beam="1">  1        2 0.98524454E+00 0.14912107E+02</pdfrwt>
<pdfrwt beam="2">  1       -2 0.99480599E+00 0.14912107E+02</pdfrwt>
<totfact>-0.33457324E-13</totfact>
</mgrwt>
</event>
<event>
 4    1  0.5245809E-019  0.1489889E+02  0.7818608E-02  0.1871170E+00
         -2   -1    0    0    0  501 -0.00000000000E+00  0.00000000000E+00  0.11799836300E+03  0.11799836302E+03  0.25500000000E-02 0. -1.
          2   -1    0    0  501    0  0.00000000000E+00 -0.00000000000E+00 -0.47029285762E+00  0.47029977082E+00  0.25500000000E-02 0.  1.
         31    1    1    2    0    0 -0.12080878208E+00  0.21714821327E-01  0.57633742095E+02  0.58113012486E+02  0.74470750000E+01 0.  1.
        -31    1    1    2    0    0  0.12080878208E+00 -0.21714821327E-01  0.59894328042E+02  0.60355650307E+02  0.74470750000E+01 0. -1.
<mgrwt>
<rscale>  0 0.14898886E+02</rscale>
<asrwt>0</asrwt>
<pdfrwt beam="2">  1        2 0.99878326E+00 0.14898886E+02</pdfrwt>
<pdfrwt beam="1">  1       -2 0.97958179E+00 0.14898886E+02</pdfrwt>
<totfact> 0.55254695E-13</totfact>
</mgrwt>
</event>
<event>
 4    1 -0.5245809E-019  0.1499913E+02  0.7818608E-02  0.1868095E+00
          2   -1    0    0  501    0  0.00000000000E+00  0.00000000000E+00  0.11974184081E+03  0.11974184084E+03  0.25500000000E-02 0. -1.
         -2   -1    0    0    0  501 -0.00000000000E+00 -0.00000000000E+00 -0.46970284704E+00  0.46970976892E+00  0.25500000000E-02 0.  1.
         31    1    1    2    0    0 -0.69310990972E+00  0.69668543132E-01  0.64020850666E+02  0.64456291401E+02  0.74470750000E+01 0.  1.
        -31    1    1    2    0    0  0.69310990972E+00 -0.69668543132E-01  0.55251287296E+02  0.55755259205E+02  0.74470750000E+01 0.  1.
<mgrwt>
<rscale>  0 0.14999133E+02</rscale>
<asrwt>0</asrwt>
<pdfrwt beam="1">  1        2 0.99399321E+00 0.14999133E+02</pdfrwt>
<pdfrwt beam="2">  1       -2 0.99759280E+00 0.14999133E+02</pdfrwt>
<totfact>-0.89733570E-14</totfact>
</mgrwt>
</event>
<event>
 4    1 -0.5245809E-019  0.1489699E+02  0.7818608E-02  0.1871228E+00
         -2   -1    0    0    0  501 -0.00000000000E+00  0.00000000000E+00  0.12035628982E+03  0.12035628984E+03  0.25500000000E-02 0.  1.
          2   -1    0    0  501    0  0.00000000000E+00 -0.00000000000E+00 -0.46096188293E+00  0.46096893606E+00  0.25500000000E-02 0. -1.
         31    1    1    2    0    0  0.64515766781E-01  0.12096651940E+00  0.59552969018E+02  0.60016946274E+02  0.74470750000E+01 0. -1.
        -31    1    1    2    0    0 -0.64515766781E-01 -0.12096651940E+00  0.60342358916E+02  0.60800312506E+02  0.74470750000E+01 0.  1.
<mgrwt>
<rscale>  0 0.14896992E+02</rscale>
<asrwt>0</asrwt>
<pdfrwt beam="2">  1        2 0.97911867E+00 0.14896992E+02</pdfrwt>
<pdfrwt beam="1">  1       -2 0.99900163E+00 0.14896992E+02</pdfrwt>
<totfact>-0.29970381E-13</totfact>
</mgrwt>
</event>
<event>
 4    1 -0.5245809E-019  0.1489677E+02  0.7818608E-02  0.1871235E+00
         -2   -1    0    0    0  501 -0.00000000000E+00  0.00000000000E+00  0.12019744530E+03  0.12019744533E+03  0.25500000000E-02 0.  1.
          2   -1    0    0  501    0  0.00000000000E+00 -0.00000000000E+00 -0.46155716569E+00  0.46156420973E+00  0.25500000000E-02 0. -1.
         31    1    1    2    0    0  0.51294802618E-01  0.39037478375E-01  0.60871050240E+02  0.61324936514E+02  0.74470750000E+01 0.  1.
        -31    1    1    2    0    0 -0.51294802618E-01 -0.39037478375E-01  0.58864837894E+02  0.59334073022E+02  0.74470750000E+01 0. -1.
<mgrwt>
<rscale>  0 0.14896767E+02</rscale>
<asrwt>0</asrwt>
<pdfrwt beam="2">  1        2 0.98037330E+00 0.14896767E+02</pdfrwt>
<pdfrwt beam="1">  1       -2 0.99769311E+00 0.14896767E+02</pdfrwt>
<totfact>-0.50028773E-13</totfact>
</mgrwt>
</event>
<event>
 4    1 -0.5245809E-019  0.1496752E+02  0.7818608E-02  0.1869061E+00
          2   -1    0    0  501    0  0.00000000000E+00  0.00000000000E+00  0.11996769678E+03  0.11996769680E+03  0.25500000000E-02 0.  1.
         -2   -1    0    0    0  501 -0.00000000000E+00 -0.00000000000E+00 -0.46684453919E+00  0.46685150345E+00  0.25500000000E-02 0. -1.
         31    1    1    2    0    0 -0.42074328458E+00 -0.21781082816E-01  0.64646572602E+02  0.65075462154E+02  0.74470750000E+01 0. -1.
        -31    1    1    2    0    0  0.42074328458E+00  0.21781082816E-01  0.54854279635E+02  0.55359086153E+02  0.74470750000E+01 0. -1.
<mgrwt>
<rscale>  0 0.14967523E+02</rscale>
<asrwt>0</asrwt>
<pdfrwt beam="1">  1        2 0.99583711E+00 0.14967523E+02</pdfrwt>
<pdfrwt beam="2">  1       -2 0.99155301E+00 0.14967523E+02</pdfrwt>
<totfact>-0.57758198E-14</totfact>
</mgrwt>
</event>
<event>
 4    1 -0.5245809E-019  0.1501510E+02  0.7818608E-02  0.1867608E+00
          2   -1    0    0  501    0  0.00000000000E+00  0.00000000000E+00  0.12017409004E+03  0.12017409007E+03  0.25500000000E-02 0. -1.
         -2   -1    0    0    0  501 -0.00000000000E+00 -0.00000000000E+00 -0.46901026557E+00  0.46901719767E+00  0.25500000000E-02 0.  1.
         31    1    1    2    0    0 -0.82304531475E+00  0.36683926702E+00  0.57410163524E+02  0.57898167299E+02  0.74470750000E+01 0.  1.
        -31    1    1    2    0    0  0.82304531475E+00 -0.36683926702E+00  0.62294916250E+02  0.62744939966E+02  0.74470750000E+01 0. -1.
<mgrwt>
<rscale>  0 0.15015099E+02</rscale>
<asrwt>0</asrwt>
<pdfrwt beam="1">  1        2 0.99756162E+00 0.15015099E+02</pdfrwt>
<pdfrwt beam="2">  1       -2 0.99614158E+00 0.15015099E+02</pdfrwt>
<totfact>-0.70278032E-14</totfact>
</mgrwt>
</event>
<event>
 4    1 -0.5245809E-019  0.1496543E+02  0.7818608E-02  0.1869125E+00
          2   -1    0    0  501    0  0.00000000000E+00  0.00000000000E+00  0.11915025980E+03  0.11915025982E+03  0.25500000000E-02 0. -1.
         -2   -1    0    0    0  501 -0.00000000000E+00 -0.00000000000E+00 -0.46991577330E+00  0.46992269204E+00  0.25500000000E-02 0.  1.
         31    1    1    2    0    0  0.52785007844E+00  0.45726005087E+00  0.61023728731E+02  0.61480420515E+02  0.74470750000E+01 0. -1.
        -31    1    1    2    0    0 -0.52785007844E+00 -0.45726005087E+00  0.57656615294E+02  0.58139762002E+02  0.74470750000E+01 0.  1.
<mgrwt>
<rscale>  0 0.14965427E+02</rscale>
<asrwt>0</asrwt>
<pdfrwt beam="1">  1        2 0.98910336E+00 0.14965427E+02</pdfrwt>
<pdfrwt beam="2">  1       -2 0.99802389E+00 0.14965427E+02</pdfrwt>
<totfact>-0.11524042E-13</totfact>
</mgrwt>
</event>
<event>
 4    1 -0.5245809E-019  0.1497991E+02  0.7818608E-02  0.1868682E+00
          2   -1    0    0  501    0  0.00000000000E+00  0.00000000000E+00  0.12001706651E+03  0.12001706654E+03  0.25500000000E-02 0.  1.
         -2   -1    0    0    0  501 -0.00000000000E+00 -0.00000000000E+00 -0.46742496194E+00  0.46743191755E+00  0.25500000000E-02 0. -1.
         31    1    1    2    0    0  0.19504532274E-01 -0.70229116303E-01  0.66184877674E+02  0.66602569555E+02  0.74470750000E+01 0.  1.
        -31    1    1    2    0    0 -0.19504532274E-01  0.70229116303E-01  0.53364763878E+02  0.53881928904E+02  0.74470750000E+01 0. -1.
<mgrwt>
<rscale>  0 0.14979906E+02</rscale>
<asrwt>0</asrwt>
<pdfrwt beam="1">  1        2 0.99625013E+00 0.14979906E+02</pdfrwt>
<pdfrwt beam="2">  1       -2 0.99278258E+00 0.14979906E+02</pdfrwt>
<totfact>-0.84396386E-14</totfact>
</mgrwt>
</event>
<event>
 4    1 -0.5245809E-019  0.1489867E+02  0.7818608E-02  0.1871176E+00
         -2   -1    0    0    0  501 -0.00000000000E+00  0.00000000000E+00  0.12016242605E+03  0.12016242607E+03  0.25500000000E-02 0. -1.
          2   -1    0    0  501    0  0.00000000000E+00 -0.00000000000E+00 -0.46180964443E+00  0.46181668461E+00  0.25500000000E-02 0.  1.
         31    1    1    2    0    0  0.38266612660E-01 -0.17513724777E+00  0.60167001415E+02  0.60626389656E+02  0.74470750000E+01 0. -1.
        -31    1    1    2    0    0 -0.38266612660E-01  0.17513724777E+00  0.59533614988E+02  0.59997853103E+02  0.74470750000E+01 0.  1.
<mgrwt>
<rscale>  0 0.14898670E+02</rscale>
<asrwt>0</asrwt>
<pdfrwt beam="2">  1        2 0.98090643E+00 0.14898670E+02</pdfrwt>
<pdfrwt beam="1">  1       -2 0.99740564E+00 0.14898670E+02</pdfrwt>
<totfact>-0.49956664E-13</totfact>
</mgrwt>
</event>
<event>
 4    1 -0.5245809E-019  0.1492655E+02  0.7818608E-02  0.1870318E+00
          2   -1    0    0  501    0  0.00000000000E+00  0.00000000000E+00  0.11881544115E+03  0.11881544117E+03  0.25500000000E-02 0. -1.
         -2   -1    0    0    0  501 -0.00000000000E+00 -0.00000000000E+00 -0.46879478993E+00  0.46880172522E+00  0.25500000000E-02 0.  1.
         31    1    1    2    0    0 -0.47194465239E+00  0.99318657779E-01  0.59929474552E+02  0.60392329332E+02  0.74470750000E+01 0. -1.
        -31    1    1    2    0    0  0.47194465239E+00 -0.99318657779E-01  0.58417171805E+02  0.58891913568E+02  0.74470750000E+01 0.  1.
<mgrwt>
<rscale>  0 0.14926550E+02</rscale>
<asrwt>0</asrwt>
<pdfrwt beam="1">  1        2 0.98632558E+00 0.14926550E+02</pdfrwt>
<pdfrwt beam="2">  1       -2 0.99564147E+00 0.14926550E+02</pdfrwt>
<totfact>-0.27345129E-13</totfact>
</mgrwt>
</event>
<event>
 4    1  0.5245809E-019  0.1489819E+02  0.7818608E-02  0.1871191E+00
          2   -1    0    0  501    0  0.00000000000E+00  0.00000000000E+00  0.11944403316E+03  0.11944403319E+03  0.25500000000E-02 0. -1.
         -2   -1    0    0    0  501 -0.00000000000E+00 -0.00000000000E+00 -0.46455723344E+00  0.46456423199E+00  0.25500000000E-02 0.  1.
         31    1    1    2    0    0  0.96668422136E-01  0.13721403700E+00  0.59137777502E+02  0.59605065443E+02  0.74470750000E+01 0. -1.
        -31    1    1    2    0    0 -0.96668422136E-01 -0.13721403700E+00  0.59841698428E+02  0.60303531981E+02  0.74470750000E+01 0. -1.
<mgrwt>
<rscale>  0 0.14898189E+02</rscale>
<asrwt>0</asrwt>
<pdfrwt beam="1">  1        2 0.99148818E+00 0.14898189E+02</pdfrwt>
<pdfrwt beam="2">  1       -2 0.98669702E+00 0.14898189E+02</pdfrwt>
<totfact> 0.36602224E-13</totfact>
</mgrwt>
</event>
<event>
 4    1  0.5245809E-019  0.1493094E+02  0.7818608E-02  0.1870183E+00
         -2   -1    0    0    0  501 -0.00000000000E+00  0.00000000000E+00  0.11881336776E+03  0.11881336779E+03  0.25500000000E-02 0. -1.
          2   -1    0    0  501    0  0.00000000000E+00 -0.00000000000E+00 -0.46907848947E+00  0.46908542056E+00  0.25500000000E-02 0.  1.
         31    1    1    2    0    0 -0.39579444749E+00 -0.34217004890E+00  0.59359578327E+02  0.59827186118E+02  0.74470750000E+01 0.  1.
        -31    1    1    2    0    0  0.39579444749E+00  0.34217004890E+00  0.58984710947E+02  0.59455267094E+02  0.74470750000E+01 0. -1.
<mgrwt>
<rscale>  0 0.14930936E+02</rscale>
<asrwt>0</asrwt>
<pdfrwt beam="2">  1        2 0.99624155E+00 0.14930936E+02</pdfrwt>
<pdfrwt beam="1">  1       -2 0.98631078E+00 0.14930936E+02</pdfrwt>
<totfact> 0.27318405E-13</totfact>
</mgrwt>
</event>
<event>
 4    1 -0.5245809E-019  0.1495847E+02  0.7818608E-02  0.1869338E+00
         -2   -1    0    0    0  501 -0.00000000000E+00  0.00000000000E+00  0.12001915682E+03  0.12001915685E+03  0.25500000000E-02 0.  1.
          2   -1    0    0  501    0  0.00000000000E+00 -0.00000000000E+00 -0.46608031571E+00  0.46608729139E+00  0.25500000000E-02 0. -1.
         31    1    1    2    0    0 -0.27720675649E-01 -0.17200456296E+00  0.65178008852E+02  0.65602302688E+02  0.74470750000E+01 0.  1.
        -31    1    1    2    0    0  0.27720675649E-01  0.17200456296E+00  0.54375067652E+02  0.54882941450E+02  0.74470750000E+01 0. -1.
<mgrwt>
<rscale>  0 0.14958474E+02</rscale>
<asrwt>0</asrwt>
<pdfrwt beam="2">  1        2 0.98993779E+00 0.14958474E+02</pdfrwt>
<pdfrwt beam="1">  1       -2 0.99625630E+00 0.14958474E+02</pdfrwt>
<totfact>-0.16351322E-13</totfact>
</mgrwt>
</event>
<event>
 4    1  0.5245809E-019  0.1489501E+02  0.7818608E-02  0.1871289E+00
          2   -1    0    0  501    0  0.00000000000E+00  0.00000000000E+00  0.11971482694E+03  0.11971482697E+03  0.25500000000E-02 0. -1.
         -2   -1    0    0    0  501 -0.00000000000E+00 -0.00000000000E+00 -0.46330872968E+00  0.46331574709E+00  0.25500000000E-02 0.  1.
         31    1    1    2    0    0 -0.54451398709E-01  0.19501811206E-01  0.60073269892E+02  0.60533131646E+02  0.74470750000E+01 0. -1.
        -31    1    1    2    0    0  0.54451398709E-01 -0.19501811206E-01  0.59178248320E+02  0.59645011070E+02  0.74470750000E+01 0.  1.
<mgrwt>
<rscale>  0 0.14895012E+02</rscale>
<asrwt>0</asrwt>
<pdfrwt beam="1">  1        2 0.99371697E+00 0.14895012E+02</pdfrwt>
<pdfrwt beam="2">  1       -2 0.98406415E+00 0.14895012E+02</pdfrwt>
<totfact> 0.69550644E-13</totfact>
</mgrwt>
</event>
<event>
 4    1 -0.5245809E-019  0.1497175E+02  0.7818608E-02  0.1868932E+00
          2   -1    0    0  501    0  0.00000000000E+00  0.00000000000E+00  0.11951865998E+03  0.11951866001E+03  0.25500000000E-02 0.  1.
         -2   -1    0    0    0  501 -0.00000000000E+00 -0.00000000000E+00 -0.46886324796E+00  0.46887018224E+00  0.25500000000E-02 0. -1.
         31    1    1    2    0    0 -0.44800206476E+00 -0.10673044475E+00  0.54667822628E+02  0.55174648655E+02  0.74470750000E+01 0. -1.
        -31    1    1    2    0    0  0.44800206476E+00  0.10673044475E+00  0.64381974107E+02  0.64812881538E+02  0.74470750000E+01 0.  1.
<mgrwt>
<rscale>  0 0.14971750E+02</rscale>
<asrwt>0</asrwt>
<pdfrwt beam="1">  1        2 0.99214085E+00 0.14971750E+02</pdfrwt>
<pdfrwt beam="2">  1       -2 0.99580932E+00 0.14971750E+02</pdfrwt>
<totfact>-0.14326154E-13</totfact>
</mgrwt>
</event>
<event>
 4    1 -0.5245809E-019  0.1495948E+02  0.7818608E-02  0.1869307E+00
         -2   -1    0    0    0  501 -0.00000000000E+00  0.00000000000E+00  0.11976779865E+03  0.11976779868E+03  0.25500000000E-02 0. -1.
          2   -1    0    0  501    0  0.00000000000E+00 -0.00000000000E+00 -0.46712145751E+00  0.46712841764E+00  0.25500000000E-02 0.  1.
         31    1    1    2    0    0 -0.30868607287E+00  0.14460251706E+00  0.64548559346E+02  0.64977624123E+02  0.74470750000E+01 0. -1.
        -31    1    1    2    0    0  0.30868607287E+00 -0.14460251706E+00  0.54752117849E+02  0.55257302974E+02  0.74470750000E+01 0.  1.
<mgrwt>
<rscale>  0 0.14959482E+02</rscale>
<asrwt>0</asrwt>
<pdfrwt beam="2">  1        2 0.99213246E+00 0.14959482E+02</pdfrwt>
<pdfrwt beam="1">  1       -2 0.99418650E+00 0.14959482E+02</pdfrwt>
<totfact>-0.14826641E-13</totfact>
</mgrwt>
</event>
<event>
 4    1 -0.5245809E-019  0.1501086E+02  0.7818608E-02  0.1867737E+00
          2   -1    0    0  501    0  0.00000000000E+00  0.00000000000E+00  0.12012449761E+03  0.12012449764E+03  0.25500000000E-02 0. -1.
         -2   -1    0    0    0  501 -0.00000000000E+00 -0.00000000000E+00 -0.46893918788E+00  0.46894612103E+00  0.25500000000E-02 0.  1.
         31    1    1    2    0    0  0.47107835438E-01 -0.91940681736E+00  0.58556264674E+02  0.59035096228E+02  0.74470750000E+01 0. -1.
        -31    1    1    2    0    0 -0.47107835438E-01  0.91940681736E+00  0.61099293753E+02  0.61558347535E+02  0.74470750000E+01 0.  1.
<mgrwt>
<rscale>  0 0.15010863E+02</rscale>
<asrwt>0</asrwt>
<pdfrwt beam="1">  1        2 0.99715097E+00 0.15010863E+02</pdfrwt>
<pdfrwt beam="2">  1       -2 0.99598961E+00 0.15010863E+02</pdfrwt>
<totfact>-0.79868735E-14</totfact>
</mgrwt>
</event>
<event>
 4    1 -0.5245809E-019  0.1492915E+02  0.7818608E-02  0.1870238E+00
          2   -1    0    0  501    0  0.00000000000E+00  0.00000000000E+00  0.11886177716E+03  0.11886177719E+03  0.25500000000E-02 0.  1.
         -2   -1    0    0    0  501 -0.00000000000E+00 -0.00000000000E+00 -0.46877555953E+00  0.46878249511E+00  0.25500000000E-02 0. -1.
         31    1    1    2    0    0  0.16980522620E+00  0.11666737535E+00  0.55459851545E+02  0.55957988747E+02  0.74470750000E+01 0. -1.
        -31    1    1    2    0    0 -0.16980522620E+00 -0.11666737535E+00  0.62933150058E+02  0.63372570939E+02  0.74470750000E+01 0.  1.
<mgrwt>
<rscale>  0 0.14929154E+02</rscale>
<asrwt>0</asrwt>
<pdfrwt beam="1">  1        2 0.98670856E+00 0.14929154E+02</pdfrwt>
<pdfrwt beam="2">  1       -2 0.99560232E+00 0.14929154E+02</pdfrwt>
<totfact>-0.25910788E-13</totfact>
</mgrwt>
</event>
<event>
 4    1 -0.5245809E-019  0.1489637E+02  0.7818608E-02  0.1871247E+00
         -2   -1    0    0    0  501 -0.00000000000E+00  0.00000000000E+00  0.12013358144E+03  0.12013358146E+03  0.25500000000E-02 0. -1.
          2   -1    0    0  501    0  0.00000000000E+00 -0.00000000000E+00 -0.46177801171E+00  0.46178505237E+00  0.25500000000E-02 0.  1.
         31    1    1    2    0    0  0.11160651195E+00  0.62427780741E-01  0.59948441084E+02  0.60409360762E+02  0.74470750000E+01 0.  1.
        -31    1    1    2    0    0 -0.11160651195E+00 -0.62427780741E-01  0.59723362340E+02  0.60186005753E+02  0.74470750000E+01 0.  1.
<mgrwt>
<rscale>  0 0.14896372E+02</rscale>
<asrwt>0</asrwt>
<pdfrwt beam="2">  1        2 0.98083859E+00 0.14896372E+02</pdfrwt>
<pdfrwt beam="1">  1       -2 0.99716687E+00 0.14896372E+02</pdfrwt>
<totfact>-0.53730975E-13</totfact>
</mgrwt>
</event>
<event>
 4    1 -0.5245809E-019  0.1497069E+02  0.7818608E-02  0.1868964E+00
          2   -1    0    0  501    0  0.00000000000E+00  0.00000000000E+00  0.11993542468E+03  0.11993542471E+03  0.25500000000E-02 0.  1.
         -2   -1    0    0    0  501 -0.00000000000E+00 -0.00000000000E+00 -0.46716756474E+00  0.46717452419E+00  0.25500000000E-02 0. -1.
         31    1    1    2    0    0  0.51235412065E+00  0.25514852439E+00  0.63705452601E+02  0.64141805593E+02  0.74470750000E+01 0. -1.
        -31    1    1    2    0    0 -0.51235412065E+00 -0.25514852439E+00  0.55762804514E+02  0.56260793639E+02  0.74470750000E+01 0. -1.
<mgrwt>
<rscale>  0 0.14970686E+02</rscale>
<asrwt>0</asrwt>
<pdfrwt beam="1">  1        2 0.99557293E+00 0.14970686E+02</pdfrwt>
<pdfrwt beam="2">  1       -2 0.99223539E+00 0.14970686E+02</pdfrwt>
<totfact>-0.80284612E-14</totfact>
</mgrwt>
</event>
<event>
 4    1 -0.5245809E-019  0.1495817E+02  0.7818608E-02  0.1869348E+00
          2   -1    0    0  501    0  0.00000000000E+00  0.00000000000E+00  0.11916419408E+03  0.11916419411E+03  0.25500000000E-02 0.  1.
         -2   -1    0    0    0  501 -0.00000000000E+00 -0.00000000000E+00 -0.46940527798E+00  0.46941220425E+00  0.25500000000E-02 0. -1.
         31    1    1    2    0    0 -0.19436404895E+00 -0.65019640672E+00  0.60398096922E+02  0.60859260352E+02  0.74470750000E+01 0. -1.
        -31    1    1    2    0    0  0.19436404895E+00  0.65019640672E+00  0.58296691883E+02  0.58774345962E+02  0.74470750000E+01 0. -1.
<mgrwt>
<rscale>  0 0.14958171E+02</rscale>
<asrwt>0</asrwt>
<pdfrwt beam="1">  1        2 0.98921436E+00 0.14958171E+02</pdfrwt>
<pdfrwt beam="2">  1       -2 0.99694441E+00 0.14958171E+02</pdfrwt>
<totfact>-0.15677589E-13</totfact>
</mgrwt>
</event>
<event>
 4    1  0.5245809E-019  0.1490506E+02  0.7818608E-02  0.1870980E+00
          2   -1    0    0  501    0  0.00000000000E+00  0.00000000000E+00  0.12017065380E+03  0.12017065383E+03  0.25500000000E-02 0. -1.
         -2   -1    0    0    0  501 -0.00000000000E+00 -0.00000000000E+00 -0.46217405126E+00  0.46218108589E+00  0.25500000000E-02 0.  1.
         31    1    1    2    0    0  0.16438550636E+00 -0.16344523316E+00  0.61196889879E+02  0.61648779338E+02  0.74470750000E+01 0.  1.
        -31    1    1    2    0    0 -0.16438550636E+00  0.16344523316E+00  0.58511589872E+02  0.58984055578E+02  0.74470750000E+01 0.  1.
<mgrwt>
<rscale>  0 0.14905057E+02</rscale>
<asrwt>0</asrwt>
<pdfrwt beam="1">  1        2 0.99747668E+00 0.14905057E+02</pdfrwt>
<pdfrwt beam="2">  1       -2 0.98167772E+00 0.14905057E+02</pdfrwt>
<totfact> 0.68383909E-13</totfact>
</mgrwt>
</event>
<event>
 4    1 -0.5245809E-019  0.1492154E+02  0.7818608E-02  0.1870472E+00
         -2   -1    0    0    0  501 -0.00000000000E+00  0.00000000000E+00  0.11999512465E+03  0.11999512467E+03  0.25500000000E-02 0.  1.
          2   -1    0    0  501    0  0.00000000000E+00 -0.00000000000E+00 -0.46387441950E+00  0.46388142835E+00  0.25500000000E-02 0. -1.
         31    1    1    2    0    0  0.26070300122E+00 -0.28175970850E+00  0.61689803481E+02  0.62138861707E+02  0.74470750000E+01 0.  1.
        -31    1    1    2    0    0 -0.26070300122E+00  0.28175970850E+00  0.57841446744E+02  0.58320144394E+02  0.74470750000E+01 0. -1.
<mgrwt>
<rscale>  0 0.14921540E+02</rscale>
<asrwt>0</asrwt>
<pdfrwt beam="2">  1        2 0.98526990E+00 0.14921540E+02</pdfrwt>
<pdfrwt beam="1">  1       -2 0.99603934E+00 0.14921540E+02</pdfrwt>
<totfact>-0.31057018E-13</totfact>
</mgrwt>
</event>
<event>
 4    1 -0.5245809E-019  0.1489506E+02  0.7818608E-02  0.1871288E+00
         -2   -1    0    0    0  501 -0.00000000000E+00  0.00000000000E+00  0.12037753643E+03  0.12037753646E+03  0.25500000000E-02 0.  1.
          2   -1    0    0  501    0  0.00000000000E+00 -0.00000000000E+00 -0.46076121278E+00  0.46076826899E+00  0.25500000000E-02 0. -1.
         31    1    1    2    0    0 -0.44694691314E-01  0.39391407472E-01  0.60421041879E+02  0.60878278369E+02  0.74470750000E+01 0.  1.
        -31    1    1    2    0    0  0.44694691314E-01 -0.39391407472E-01  0.59495733339E+02  0.59960026358E+02  0.74470750000E+01 0. -1.
<mgrwt>
<rscale>  0 0.14895063E+02</rscale>
<asrwt>0</asrwt>
<pdfrwt beam="2">  1        2 0.97869473E+00 0.14895063E+02</pdfrwt>
<pdfrwt beam="1">  1       -2 0.99917565E+00 0.14895063E+02</pdfrwt>
<totfact>-0.26855706E-13</totfact>
</mgrwt>
</event>
<event>
 4    1 -0.5245809E-019  0.1497223E+02  0.7818608E-02  0.1868917E+00
         -2   -1    0    0    0  501 -0.00000000000E+00  0.00000000000E+00  0.12022672276E+03  0.12022672278E+03  0.25500000000E-02 0. -1.
          2   -1    0    0  501    0  0.00000000000E+00 -0.00000000000E+00 -0.46613168324E+00  0.46613865815E+00  0.25500000000E-02 0.  1.
         31    1    1    2    0    0 -0.71162933806E+00 -0.26867548112E+00  0.59346901388E+02  0.59817156679E+02  0.74470750000E+01 0.  1.
        -31    1    1    2    0    0  0.71162933806E+00  0.26867548112E+00  0.60413689686E+02  0.60875704763E+02  0.74470750000E+01 0.  1.
<mgrwt>
<rscale>  0 0.14972229E+02</rscale>
<asrwt>0</asrwt>
<pdfrwt beam="2">  1        2 0.99005308E+00 0.14972229E+02</pdfrwt>
<pdfrwt beam="1">  1       -2 0.99797302E+00 0.14972229E+02</pdfrwt>
<totfact>-0.10675622E-13</totfact>
</mgrwt>
</event>
<event>
 4    1 -0.5245809E-019  0.1496956E+02  0.7818608E-02  0.1868999E+00
         -2   -1    0    0    0  501 -0.00000000000E+00  0.00000000000E+00  0.11995995325E+03  0.11995995328E+03  0.25500000000E-02 0. -1.
          2   -1    0    0  501    0  0.00000000000E+00 -0.00000000000E+00 -0.46700161552E+00  0.46700857743E+00  0.25500000000E-02 0.  1.
         31    1    1    2    0    0 -0.59650692025E-01  0.31920635744E+00  0.65188084755E+02  0.65612885708E+02  0.74470750000E+01 0. -1.
        -31    1    1    2    0    0  0.59650692025E-01 -0.31920635744E+00  0.54304866883E+02  0.54814076150E+02  0.74470750000E+01 0.  1.
<mgrwt>
<rscale>  0 0.14969557E+02</rscale>
<asrwt>0</asrwt>
<pdfrwt beam="2">  1        2 0.99188509E+00 0.14969557E+02</pdfrwt>
<pdfrwt beam="1">  1       -2 0.99577438E+00 0.14969557E+02</pdfrwt>
<totfact>-0.14641855E-13</totfact>
</mgrwt>
</event>
<event>
 4    1  0.5245809E-019  0.1494940E+02  0.7818608E-02  0.1869617E+00
         -2   -1    0    0    0  501 -0.00000000000E+00  0.00000000000E+00  0.11916397106E+03  0.11916397108E+03  0.25500000000E-02 0. -1.
          2   -1    0    0  501    0  0.00000000000E+00 -0.00000000000E+00 -0.46885556047E+00  0.46886249486E+00  0.25500000000E-02 0.  1.
         31    1    1    2    0    0  0.34903645666E+00  0.25316241343E+00  0.63154126427E+02  0.63593148440E+02  0.74470750000E+01 0. -1.
        -31    1    1    2    0    0 -0.34903645666E+00 -0.25316241343E+00  0.55540989070E+02  0.56039685140E+02  0.74470750000E+01 0.  1.
<mgrwt>
<rscale>  0 0.14949396E+02</rscale>
<asrwt>0</asrwt>
<pdfrwt beam="2">  1        2 0.99578148E+00 0.14949396E+02</pdfrwt>
<pdfrwt beam="1">  1       -2 0.98920797E+00 0.14949396E+02</pdfrwt>
<totfact> 0.52862465E-14</totfact>
</mgrwt>
</event>
<event>
 4    1  0.5245809E-019  0.1492727E+02  0.7818608E-02  0.1870296E+00
          2   -1    0    0  501    0  0.00000000000E+00  0.00000000000E+00  0.12002194359E+03  0.12002194362E+03  0.25500000000E-02 0. -1.
         -2   -1    0    0    0  501 -0.00000000000E+00 -0.00000000000E+00 -0.46412670460E+00  0.46413370964E+00  0.25500000000E-02 0.  1.
         31    1    1    2    0    0  0.22885614932E+00 -0.15556076937E+00  0.56447868748E+02  0.56937662286E+02  0.74470750000E+01 0.  1.
        -31    1    1    2    0    0 -0.22885614932E+00  0.15556076937E+00  0.63109948135E+02  0.63548415039E+02  0.74470750000E+01 0. -1.
<mgrwt>
<rscale>  0 0.14927265E+02</rscale>
<asrwt>0</asrwt>
<pdfrwt beam="1">  1        2 0.99626319E+00 0.14927265E+02</pdfrwt>
<pdfrwt beam="2">  1       -2 0.98580453E+00 0.14927265E+02</pdfrwt>
<totfact> 0.32316508E-13</totfact>
</mgrwt>
</event>
<event>
 4    1 -0.5245809E-019  0.1494422E+02  0.7818608E-02  0.1869775E+00
         -2   -1    0    0    0  501 -0.00000000000E+00  0.00000000000E+00  0.11991435434E+03  0.11991435436E+03  0.25500000000E-02 0.  1.
          2   -1    0    0  501    0  0.00000000000E+00 -0.00000000000E+00 -0.46559898902E+00  0.46560597190E+00  0.25500000000E-02 0. -1.
         31    1    1    2    0    0 -0.34996457579E+00  0.47952635482E+00  0.58554909539E+02  0.59029558511E+02  0.74470750000E+01 0. -1.
        -31    1    1    2    0    0  0.34996457579E+00 -0.47952635482E+00  0.60893845808E+02  0.61350401825E+02  0.74470750000E+01 0. -1.
<mgrwt>
<rscale>  0 0.14944219E+02</rscale>
<asrwt>0</asrwt>
<pdfrwt beam="2">  1        2 0.98891610E+00 0.14944219E+02</pdfrwt>
<pdfrwt beam="1">  1       -2 0.99538574E+00 0.14944219E+02</pdfrwt>
<totfact>-0.19701995E-13</totfact>
</mgrwt>
</event>
<event>
 4    1  0.5245809E-019  0.1492682E+02  0.7818608E-02  0.1870310E+00
          2   -1    0    0  501    0  0.00000000000E+00  0.00000000000E+00  0.11994599735E+03  0.11994599738E+03  0.25500000000E-02 0.  1.
         -2   -1    0    0    0  501 -0.00000000000E+00 -0.00000000000E+00 -0.46439272860E+00  0.46439972962E+00  0.25500000000E-02 0. -1.
         31    1    1    2    0    0 -0.19904421733E-01 -0.43021288215E+00  0.61684642482E+02  0.62134044803E+02  0.74470750000E+01 0.  1.
        -31    1    1    2    0    0  0.19904421733E-01  0.43021288215E+00  0.57796962142E+02  0.58276352307E+02  0.74470750000E+01 0. -1.
<mgrwt>
<rscale>  0 0.14926818E+02</rscale>
<asrwt>0</asrwt>
<pdfrwt beam="1">  1        2 0.99563741E+00 0.14926818E+02</pdfrwt>
<pdfrwt beam="2">  1       -2 0.98636497E+00 0.14926818E+02</pdfrwt>
<totfact> 0.29210130E-13</totfact>
</mgrwt>
</event>
<event>
 4    1 -0.5245809E-019  0.1500359E+02  0.7818608E-02  0.1867959E+00
          2   -1    0    0  501    0  0.00000000000E+00  0.00000000000E+00  0.12012031503E+03  0.12012031506E+03  0.25500000000E-02 0. -1.
         -2   -1    0    0    0  501 -0.00000000000E+00 -0.00000000000E+00 -0.46850106767E+00  0.46850800731E+00  0.25500000000E-02 0.  1.
         31    1    1    2    0    0 -0.80912746954E+00  0.25973541060E+00  0.62314108362E+02  0.62763278888E+02  0.74470750000E+01 0.  1.
        -31    1    1    2    0    0  0.80912746954E+00 -0.25973541060E+00  0.57337705599E+02  0.57825544175E+02  0.74470750000E+01 0.  1.
<mgrwt>
<rscale>  0 0.15003588E+02</rscale>
<asrwt>0</asrwt>
<pdfrwt beam="1">  1        2 0.99711276E+00 0.15003588E+02</pdfrwt>
<pdfrwt beam="2">  1       -2 0.99506257E+00 0.15003588E+02</pdfrwt>
<totfact>-0.85648413E-14</totfact>
</mgrwt>
</event>
<event>
 4    1 -0.5245809E-019  0.1499185E+02  0.7818608E-02  0.1868317E+00
         -2   -1    0    0    0  501 -0.00000000000E+00  0.00000000000E+00  0.11956247668E+03  0.11956247671E+03  0.25500000000E-02 0.  1.
          2   -1    0    0  501    0  0.00000000000E+00 -0.00000000000E+00 -0.46995097342E+00  0.46995789164E+00  0.25500000000E-02 0. -1.
         31    1    1    2    0    0  0.10521682738E+00  0.23698749421E-01  0.66332274728E+02  0.66749091596E+02  0.74470750000E+01 0.  1.
        -31    1    1    2    0    0 -0.10521682738E+00 -0.23698749421E-01  0.52760250984E+02  0.53283343008E+02  0.74470750000E+01 0. -1.
<mgrwt>
<rscale>  0 0.14991854E+02</rscale>
<asrwt>0</asrwt>
<pdfrwt beam="2">  1        2 0.99811187E+00 0.14991854E+02</pdfrwt>
<pdfrwt beam="1">  1       -2 0.99251215E+00 0.14991854E+02</pdfrwt>
<totfact>-0.48764328E-14</totfact>
</mgrwt>
</event>
<event>
 4    1 -0.5245809E-019  0.1491858E+02  0.7818608E-02  0.1870563E+00
          2   -1    0    0  501    0  0.00000000000E+00  0.00000000000E+00  0.11855122924E+03  0.11855122927E+03  0.25500000000E-02 0. -1.
         -2   -1    0    0    0  501 -0.00000000000E+00 -0.00000000000E+00 -0.46933772846E+00  0.46934465572E+00  0.25500000000E-02 0.  1.
         31    1    1    2    0    0 -0.37779902738E+00 -0.16310428379E+00  0.59940635814E+02  0.60402881413E+02  0.74470750000E+01 0. -1.
        -31    1    1    2    0    0  0.37779902738E+00  0.16310428379E+00  0.58141255702E+02  0.58617692515E+02  0.74470750000E+01 0.  1.
<mgrwt>
<rscale>  0 0.14918576E+02</rscale>
<asrwt>0</asrwt>
<pdfrwt beam="1">  1        2 0.98414538E+00 0.14918576E+02</pdfrwt>
<pdfrwt beam="2">  1       -2 0.99678129E+00 0.14918576E+02</pdfrwt>
<totfact>-0.33443694E-13</totfact>
</mgrwt>
</event>
<event>
 4    1  0.5245809E-019  0.1490725E+02  0.7818608E-02  0.1870912E+00
          2   -1    0    0  501    0  0.00000000000E+00  0.00000000000E+00  0.11990715264E+03  0.11990715267E+03  0.25500000000E-02 0.  1.
         -2   -1    0    0    0  501 -0.00000000000E+00 -0.00000000000E+00 -0.46332609775E+00  0.46333311490E+00  0.25500000000E-02 0. -1.
         31    1    1    2    0    0 -0.22351576808E-01 -0.25394561716E+00  0.58263485928E+02  0.58738043094E+02  0.74470750000E+01 0. -1.
        -31    1    1    2    0    0  0.22351576808E-01  0.25394561716E+00  0.61180340619E+02  0.61632442692E+02  0.74470750000E+01 0.  1.
<mgrwt>
<rscale>  0 0.14907252E+02</rscale>
<asrwt>0</asrwt>
<pdfrwt beam="1">  1        2 0.99530740E+00 0.14907252E+02</pdfrwt>
<pdfrwt beam="2">  1       -2 0.98410698E+00 0.14907252E+02</pdfrwt>
<totfact> 0.59442966E-13</totfact>
</mgrwt>
</event>
<event>
 4    1 -0.5245809E-019  0.1498764E+02  0.7818608E-02  0.1868446E+00
         -2   -1    0    0    0  501 -0.00000000000E+00  0.00000000000E+00  0.11980302758E+03  0.11980302761E+03  0.25500000000E-02 0. -1.
          2   -1    0    0  501    0  0.00000000000E+00 -0.00000000000E+00 -0.46874402022E+00  0.46875095626E+00  0.25500000000E-02 0.  1.
         31    1    1    2    0    0 -0.30517464255E+00 -0.46951743143E+00  0.64645496627E+02  0.65075438826E+02  0.74470750000E+01 0. -1.
        -31    1    1    2    0    0  0.30517464255E+00  0.46951743143E+00  0.54688786934E+02  0.55196339739E+02  0.74470750000E+01 0.  1.
<mgrwt>
<rscale>  0 0.14987644E+02</rscale>
<asrwt>0</asrwt>
<pdfrwt beam="2">  1        2 0.99556632E+00 0.14987644E+02</pdfrwt>
<pdfrwt beam="1">  1       -2 0.99449122E+00 0.14987644E+02</pdfrwt>
<totfact>-0.11185506E-13</totfact>
</mgrwt>
</event>
<event>
 4    1 -0.5245809E-019  0.1497592E+02  0.7818608E-02  0.1868804E+00
         -2   -1    0    0    0  501 -0.00000000000E+00  0.00000000000E+00  0.12027297044E+03  0.12027297046E+03  0.25500000000E-02 0.  1.
          2   -1    0    0  501    0  0.00000000000E+00 -0.00000000000E+00 -0.46618243654E+00  0.46618941069E+00  0.25500000000E-02 0. -1.
         31    1    1    2    0    0 -0.27091511602E+00 -0.66188903221E+00  0.62442044525E+02  0.62888626496E+02  0.74470750000E+01 0.  1.
        -31    1    1    2    0    0  0.27091511602E+00  0.66188903221E+00  0.57364743476E+02  0.57850533379E+02  0.74470750000E+01 0. -1.
<mgrwt>
<rscale>  0 0.14975923E+02</rscale>
<asrwt>0</asrwt>
<pdfrwt beam="2">  1        2 0.99016193E+00 0.14975923E+02</pdfrwt>
<pdfrwt beam="1">  1       -2 0.99835585E+00 0.14975923E+02</pdfrwt>
<totfact>-0.88893587E-14</totfact>
</mgrwt>
</event>
<event>
 4    1  0.5245809E-019  0.1490937E+02  0.7818608E-02  0.1870847E+00
         -2   -1    0    0    0  501 -0.00000000000E+00  0.00000000000E+00  0.11879940127E+03  0.11879940130E+03  0.25500000000E-02 0. -1.
          2   -1    0    0  501    0  0.00000000000E+00 -0.00000000000E+00 -0.46777933894E+00  0.46778628928E+00  0.25500000000E-02 0.  1.
         31    1    1    2    0    0  0.11983968657E+00  0.29723834074E+00  0.58338985892E+02  0.58813254570E+02  0.74470750000E+01 0.  1.
        -31    1    1    2    0    0 -0.11983968657E+00 -0.29723834074E+00  0.59992636039E+02  0.60453933017E+02  0.74470750000E+01 0.  1.
<mgrwt>
<rscale>  0 0.14909369E+02</rscale>
<asrwt>0</asrwt>
<pdfrwt beam="2">  1        2 0.99349279E+00 0.14909369E+02</pdfrwt>
<pdfrwt beam="1">  1       -2 0.98618455E+00 0.14909369E+02</pdfrwt>
<totfact> 0.38142722E-13</totfact>
</mgrwt>
</event>
<event>
 4    1  0.5245809E-019  0.1491775E+02  0.7818608E-02  0.1870589E+00
         -2   -1    0    0    0  501 -0.00000000000E+00  0.00000000000E+00  0.11892507972E+03  0.11892507974E+03  0.25500000000E-02 0. -1.
          2   -1    0    0  501    0  0.00000000000E+00 -0.00000000000E+00 -0.46781078194E+00  0.46781773181E+00  0.25500000000E-02 0.  1.
         31    1    1    2    0    0  0.28670829635E+00 -0.17788992701E+00  0.61222728848E+02  0.61674916296E+02  0.74470750000E+01 0. -1.
        -31    1    1    2    0    0 -0.28670829635E+00  0.17788992701E+00  0.57234540087E+02  0.57717981180E+02  0.74470750000E+01 0.  1.
<mgrwt>
<rscale>  0 0.14917755E+02</rscale>
<asrwt>0</asrwt>
<pdfrwt beam="2">  1        2 0.99356342E+00 0.14917755E+02</pdfrwt>
<pdfrwt beam="1">  1       -2 0.98722401E+00 0.14917755E+02</pdfrwt>
<totfact> 0.25284828E-13</totfact>
</mgrwt>
</event>
<event>
 4    1  0.5245809E-019  0.1490061E+02  0.7818608E-02  0.1871117E+00
          2   -1    0    0  501    0  0.00000000000E+00  0.00000000000E+00  0.11967868813E+03  0.11967868815E+03  0.25500000000E-02 0. -1.
         -2   -1    0    0    0  501 -0.00000000000E+00 -0.00000000000E+00 -0.46379729641E+00  0.46380430642E+00  0.25500000000E-02 0.  1.
         31    1    1    2    0    0  0.57587865845E-01  0.15342328685E+00  0.58430877467E+02  0.58903762381E+02  0.74470750000E+01 0.  1.
        -31    1    1    2    0    0 -0.57587865845E-01 -0.15342328685E+00  0.60784013362E+02  0.61238730077E+02  0.74470750000E+01 0. -1.
<mgrwt>
<rscale>  0 0.14900614E+02</rscale>
<asrwt>0</asrwt>
<pdfrwt beam="1">  1        2 0.99342219E+00 0.14900614E+02</pdfrwt>
<pdfrwt beam="2">  1       -2 0.98509669E+00 0.14900614E+02</pdfrwt>
<totfact> 0.54001182E-13</totfact>
</mgrwt>
</event>
<event>
 4    1 -0.5245809E-019  0.1498021E+02  0.7818608E-02  0.1868673E+00
         -2   -1    0    0    0  501 -0.00000000000E+00  0.00000000000E+00  0.11968595301E+03  0.11968595304E+03  0.25500000000E-02 0.  1.
          2   -1    0    0  501    0  0.00000000000E+00 -0.00000000000E+00 -0.46873702241E+00  0.46874395855E+00  0.25500000000E-02 0. -1.
         31    1    1    2    0    0  0.10505979119E+00 -0.77938224855E+00  0.58359425249E+02  0.58837912231E+02  0.74470750000E+01 0. -1.
        -31    1    1    2    0    0 -0.10505979119E+00  0.77938224855E+00  0.60857790738E+02  0.61316784764E+02  0.74470750000E+01 0. -1.
<mgrwt>
<rscale>  0 0.14980208E+02</rscale>
<asrwt>0</asrwt>
<pdfrwt beam="2">  1        2 0.99554772E+00 0.14980208E+02</pdfrwt>
<pdfrwt beam="1">  1       -2 0.99352310E+00 0.14980208E+02</pdfrwt>
<totfact>-0.10509401E-13</totfact>
</mgrwt>
</event>
<event>
 4    1 -0.5245809E-019  0.1500781E+02  0.7818608E-02  0.1867830E+00
         -2   -1    0    0    0  501 -0.00000000000E+00  0.00000000000E+00  0.12041761799E+03  0.12041761802E+03  0.25500000000E-02 0. -1.
          2   -1    0    0  501    0  0.00000000000E+00 -0.00000000000E+00 -0.46760741418E+00  0.46761436708E+00  0.25500000000E-02 0.  1.
         31    1    1    2    0    0  0.57657080025E+00  0.40292865365E+00  0.64773417372E+02  0.65203905630E+02  0.74470750000E+01 0.  1.
        -31    1    1    2    0    0 -0.57657080025E+00 -0.40292865365E+00  0.55176593204E+02  0.55681326754E+02  0.74470750000E+01 0. -1.
<mgrwt>
<rscale>  0 0.15007810E+02</rscale>
<asrwt>0</asrwt>
<pdfrwt beam="2">  1        2 0.99318141E+00 0.15007810E+02</pdfrwt>
<pdfrwt beam="1">  1       -2 0.99956368E+00 0.15007810E+02</pdfrwt>
<totfact>-0.20628595E-14</totfact>
</mgrwt>
</event>
<event>
 4    1  0.5245809E-019  0.1489528E+02  0.7818608E-02  0.1871281E+00
          2   -1    0    0  501    0  0.00000000000E+00  0.00000000000E+00  0.12042955056E+03  0.12042955059E+03  0.25500000000E-02 0.  1.
         -2   -1    0    0    0  501 -0.00000000000E+00 -0.00000000000E+00 -0.46057554861E+00  0.46058260766E+00  0.25500000000E-02 0. -1.
         31    1    1    2    0    0  0.75445343235E-01 -0.30313471961E-01  0.59640377370E+02  0.60103578511E+02  0.74470750000E+01 0. -1.
        -31    1    1    2    0    0 -0.75445343235E-01  0.30313471961E-01  0.60328597640E+02  0.60786554683E+02  0.74470750000E+01 0. -1.
<mgrwt>
<rscale>  0 0.14895279E+02</rscale>
<asrwt>0</asrwt>
<pdfrwt beam="1">  1        2 0.99960420E+00 0.14895279E+02</pdfrwt>
<pdfrwt beam="2">  1       -2 0.97830348E+00 0.14895279E+02</pdfrwt>
<totfact> 0.24042045E-13</totfact>
</mgrwt>
</event>
<event>
 4    1  0.5245809E-019  0.1489995E+02  0.7818608E-02  0.1871137E+00
         -2   -1    0    0    0  501 -0.00000000000E+00  0.00000000000E+00  0.11837568097E+03  0.11837568100E+03  0.25500000000E-02 0. -1.
          2   -1    0    0  501    0  0.00000000000E+00 -0.00000000000E+00 -0.46886072436E+00  0.46886765867E+00  0.25500000000E-02 0.  1.
         31    1    1    2    0    0 -0.18474853507E+00  0.84295220497E-01  0.58600519834E+02  0.59072168477E+02  0.74470750000E+01 0. -1.
        -31    1    1    2    0    0  0.18474853507E+00 -0.84295220497E-01  0.59306300410E+02  0.59772380177E+02  0.74470750000E+01 0. -1.
<mgrwt>
<rscale>  0 0.14899949E+02</rscale>
<asrwt>0</asrwt>
<pdfrwt beam="2">  1        2 0.99576641E+00 0.14899949E+02</pdfrwt>
<pdfrwt beam="1">  1       -2 0.98268988E+00 0.14899949E+02</pdfrwt>
<totfact> 0.77843815E-13</totfact>
</mgrwt>
</event>
<event>
 4    1  0.5245809E-019  0.1490657E+02  0.7818608E-02  0.1870933E+00
          2   -1    0    0  501    0  0.00000000000E+00  0.00000000000E+00  0.12031191064E+03  0.12031191067E+03  0.25500000000E-02 0. -1.
         -2   -1    0    0    0  501 -0.00000000000E+00 -0.00000000000E+00 -0.46172513401E+00  0.46173217548E+00  0.25500000000E-02 0.  1.
         31    1    1    2    0    0  0.18135942859E+00  0.14710202134E+00  0.58345639319E+02  0.58819444776E+02  0.74470750000E+01 0.  1.
        -31    1    1    2    0    0 -0.18135942859E+00 -0.14710202134E+00  0.61504546188E+02  0.61954198067E+02  0.74470750000E+01 0. -1.
<mgrwt>
<rscale>  0 0.14906570E+02</rscale>
<asrwt>0</asrwt>
<pdfrwt beam="1">  1        2 0.99864098E+00 0.14906570E+02</pdfrwt>
<pdfrwt beam="2">  1       -2 0.98073228E+00 0.14906570E+02</pdfrwt>
<totfact> 0.49921074E-13</totfact>
</mgrwt>
</event>
<event>
 4    1  0.5245809E-019  0.1492160E+02  0.7818608E-02  0.1870470E+00
         -2   -1    0    0    0  501 -0.00000000000E+00  0.00000000000E+00  0.11856448250E+03  0.11856448252E+03  0.25500000000E-02 0.  1.
          2   -1    0    0  501    0  0.00000000000E+00 -0.00000000000E+00 -0.46947560452E+00  0.46948252975E+00  0.25500000000E-02 0. -1.
         31    1    1    2    0    0 -0.14452025772E+00  0.40778377801E+00  0.60101174279E+02  0.60562341843E+02  0.74470750000E+01 0.  1.
        -31    1    1    2    0    0  0.14452025772E+00 -0.40778377801E+00  0.57993832612E+02  0.58471623210E+02  0.74470750000E+01 0. -1.
<mgrwt>
<rscale>  0 0.14921601E+02</rscale>
<asrwt>0</asrwt>
<pdfrwt beam="2">  1        2 0.99707339E+00 0.14921601E+02</pdfrwt>
<pdfrwt beam="1">  1       -2 0.98425611E+00 0.14921601E+02</pdfrwt>
<totfact> 0.42966058E-13</totfact>
</mgrwt>
</event>
<event>
 4    1 -0.5245809E-019  0.1489686E+02  0.7818608E-02  0.1871232E+00
         -2   -1    0    0    0  501 -0.00000000000E+00  0.00000000000E+00  0.12029530001E+03  0.12029530003E+03  0.25500000000E-02 0. -1.
          2   -1    0    0  501    0  0.00000000000E+00 -0.00000000000E+00 -0.46118763180E+00  0.46119468148E+00  0.25500000000E-02 0.  1.
         31    1    1    2    0    0 -0.14083644657E+00  0.28608882760E-02  0.60071427135E+02  0.60531439163E+02  0.74470750000E+01 0.  1.
        -31    1    1    2    0    0  0.14083644657E+00 -0.28608882760E-02  0.59762685239E+02  0.60225055551E+02  0.74470750000E+01 0.  1.
<mgrwt>
<rscale>  0 0.14896863E+02</rscale>
<asrwt>0</asrwt>
<pdfrwt beam="2">  1        2 0.97959445E+00 0.14896863E+02</pdfrwt>
<pdfrwt beam="1">  1       -2 0.99849919E+00 0.14896863E+02</pdfrwt>
<totfact>-0.39957434E-13</totfact>
</mgrwt>
</event>
<event>
 4    1  0.5245809E-019  0.1490775E+02  0.7818608E-02  0.1870897E+00
         -2   -1    0    0    0  501 -0.00000000000E+00  0.00000000000E+00  0.11840745205E+03  0.11840745208E+03  0.25500000000E-02 0. -1.
          2   -1    0    0  501    0  0.00000000000E+00 -0.00000000000E+00 -0.46922617565E+00  0.46923310456E+00  0.25500000000E-02 0.  1.
         31    1    1    2    0    0 -0.92880860362E-01  0.72990055934E-01  0.56611555395E+02  0.57099396535E+02  0.74470750000E+01 0.  1.
        -31    1    1    2    0    0  0.92880860362E-01 -0.72990055934E-01  0.61326670484E+02  0.61777288651E+02  0.74470750000E+01 0. -1.
<mgrwt>
<rscale>  0 0.14907755E+02</rscale>
<asrwt>0</asrwt>
<pdfrwt beam="2">  1        2 0.99654054E+00 0.14907755E+02</pdfrwt>
<pdfrwt beam="1">  1       -2 0.98295561E+00 0.14907755E+02</pdfrwt>
<totfact> 0.65149892E-13</totfact>
</mgrwt>
</event>
<event>
 4    1  0.5245809E-019  0.1496379E+02  0.7818608E-02  0.1869175E+00
         -2   -1    0    0    0  501 -0.00000000000E+00  0.00000000000E+00  0.11910815415E+03  0.11910815417E+03  0.25500000000E-02 0. -1.
          2   -1    0    0  501    0  0.00000000000E+00 -0.00000000000E+00 -0.46997923036E+00  0.46998614817E+00  0.25500000000E-02 0.  1.
         31    1    1    2    0    0  0.28622622663E+00 -0.48025338156E+00  0.55680877145E+02  0.56179458653E+02  0.74470750000E+01 0.  1.
        -31    1    1    2    0    0 -0.28622622663E+00  0.48025338156E+00  0.62957297771E+02  0.63398681670E+02  0.74470750000E+01 0. -1.
<mgrwt>
<rscale>  0 0.14963793E+02</rscale>
<asrwt>0</asrwt>
<pdfrwt beam="2">  1        2 0.99815674E+00 0.14963793E+02</pdfrwt>
<pdfrwt beam="1">  1       -2 0.98875573E+00 0.14963793E+02</pdfrwt>
<totfact> 0.46530120E-14</totfact>
</mgrwt>
</event>
<event>
 4    1  0.5245809E-019  0.1491301E+02  0.7818608E-02  0.1870735E+00
         -2   -1    0    0    0  501 -0.00000000000E+00  0.00000000000E+00  0.11831811057E+03  0.11831811059E+03  0.25500000000E-02 0.  1.
          2   -1    0    0  501    0  0.00000000000E+00 -0.00000000000E+00 -0.46991177291E+00  0.46991869171E+00  0.25500000000E-02 0. -1.
         31    1    1    2    0    0  0.22924057802E-01 -0.36592608207E+00  0.58300342151E+02  0.58775192457E+02  0.74470750000E+01 0. -1.
        -31    1    1    2    0    0 -0.22924057802E-01  0.36592608207E+00  0.59547856642E+02  0.60012836827E+02  0.74470750000E+01 0.  1.
<mgrwt>
<rscale>  0 0.14913013E+02</rscale>
<asrwt>0</asrwt>
<pdfrwt beam="2">  1        2 0.99798785E+00 0.14913013E+02</pdfrwt>
<pdfrwt beam="1">  1       -2 0.98222254E+00 0.14913013E+02</pdfrwt>
<totfact> 0.51789016E-13</totfact>
</mgrwt>
</event>
<event>
 4    1  0.5245809E-019  0.1489674E+02  0.7818608E-02  0.1871236E+00
         -2   -1    0    0    0  501 -0.00000000000E+00  0.00000000000E+00  0.11813811773E+03  0.11813811775E+03  0.25500000000E-02 0.  1.
          2   -1    0    0  501    0  0.00000000000E+00 -0.00000000000E+00 -0.46960094860E+00  0.46960787198E+00  0.25500000000E-02 0. -1.
         31    1    1    2    0    0  0.13756996541E+00 -0.11233785297E-03  0.58689008711E+02  0.59159763311E+02  0.74470750000E+01 0.  1.
        -31    1    1    2    0    0 -0.13756996541E+00  0.11233785297E-03  0.58979508067E+02  0.59447962315E+02  0.74470750000E+01 0.  1.
<mgrwt>
<rscale>  0 0.14896736E+02</rscale>
<asrwt>0</asrwt>
<pdfrwt beam="2">  1        2 0.99732434E+00 0.14896736E+02</pdfrwt>
<pdfrwt beam="1">  1       -2 0.98073166E+00 0.14896736E+02</pdfrwt>
<totfact> 0.84993927E-13</totfact>
</mgrwt>
</event>
<event>
 4    1 -0.5245809E-019  0.1503732E+02  0.7818608E-02  0.1866932E+00
         -2   -1    0    0    0  501 -0.00000000000E+00  0.00000000000E+00  0.12026625294E+03  0.12026625297E+03  0.25500000000E-02 0. -1.
          2   -1    0    0  501    0  0.00000000000E+00 -0.00000000000E+00 -0.47003911751E+00  0.47004603444E+00  0.25500000000E-02 0.  1.
         31    1    1    2    0    0  0.91933901708E+00 -0.47053580451E+00  0.60451379955E+02  0.60917114613E+02  0.74470750000E+01 0. -1.
        -31    1    1    2    0    0 -0.91933901708E+00  0.47053580451E+00  0.59344833872E+02  0.59819184394E+02  0.74470750000E+01 0.  1.
<mgrwt>
<rscale>  0 0.15037322E+02</rscale>
<asrwt>0</asrwt>
<pdfrwt beam="2">  1        2 0.99832122E+00 0.15037322E+02</pdfrwt>
<pdfrwt beam="1">  1       -2 0.99833220E+00 0.15037322E+02</pdfrwt>
<totfact>-0.29153264E-14</totfact>
</mgrwt>
</event>
<event>
 4    1  0.5245809E-019  0.1494485E+02  0.7818608E-02  0.1869756E+00
          2   -1    0    0  501    0  0.00000000000E+00  0.00000000000E+00  0.12030905690E+03  0.12030905693E+03  0.25500000000E-02 0. -1.
         -2   -1    0    0    0  501 -0.00000000000E+00 -0.00000000000E+00 -0.46411083365E+00  0.46411783892E+00  0.25500000000E-02 0.  1.
         31    1    1    2    0    0 -0.59979754192E+00  0.11062804735E+00  0.59284123530E+02  0.59753144055E+02  0.74470750000E+01 0.  1.
        -31    1    1    2    0    0  0.59979754192E+00 -0.11062804735E+00  0.60560822537E+02  0.61020030711E+02  0.74470750000E+01 0. -1.
<mgrwt>
<rscale>  0 0.14944853E+02</rscale>
<asrwt>0</asrwt>
<pdfrwt beam="1">  1        2 0.99863711E+00 0.14944853E+02</pdfrwt>
<pdfrwt beam="2">  1       -2 0.98578001E+00 0.14944853E+02</pdfrwt>
<totfact> 0.15396735E-13</totfact>
</mgrwt>
</event>
<event>
 4    1 -0.5245809E-019  0.1492370E+02  0.7818608E-02  0.1870406E+00
          2   -1    0    0  501    0  0.00000000000E+00  0.00000000000E+00  0.11872973768E+03  0.11872973770E+03  0.25500000000E-02 0. -1.
         -2   -1    0    0    0  501 -0.00000000000E+00 -0.00000000000E+00 -0.46895423962E+00  0.46896117255E+00  0.25500000000E-02 0.  1.
         31    1    1    2    0    0  0.39572673346E+00 -0.11587475772E+00  0.57339475135E+02  0.57822524689E+02  0.74470750000E+01 0.  1.
        -31    1    1    2    0    0 -0.39572673346E+00  0.11587475772E+00  0.60921308302E+02  0.61376174188E+02  0.74470750000E+01 0. -1.
<mgrwt>
<rscale>  0 0.14923703E+02</rscale>
<asrwt>0</asrwt>
<pdfrwt beam="1">  1        2 0.98561824E+00 0.14923703E+02</pdfrwt>
<pdfrwt beam="2">  1       -2 0.99597595E+00 0.14923703E+02</pdfrwt>
<totfact>-0.29588006E-13</totfact>
</mgrwt>
</event>
<event>
 4    1 -0.5245809E-019  0.1493882E+02  0.7818608E-02  0.1869941E+00
         -2   -1    0    0    0  501 -0.00000000000E+00  0.00000000000E+00  0.12016350497E+03  0.12016350500E+03  0.25500000000E-02 0.  1.
          2   -1    0    0  501    0  0.00000000000E+00 -0.00000000000E+00 -0.46429804564E+00  0.46430504809E+00  0.25500000000E-02 0. -1.
         31    1    1    2    0    0  0.39797465081E+00 -0.25699202648E+00  0.57186763086E+02  0.57671563418E+02  0.74470750000E+01 0. -1.
        -31    1    1    2    0    0 -0.39797465081E+00  0.25699202648E+00  0.62512443839E+02  0.62956246628E+02  0.74470750000E+01 0.  1.
<mgrwt>
<rscale>  0 0.14938823E+02</rscale>
<asrwt>0</asrwt>
<pdfrwt beam="2">  1        2 0.98617152E+00 0.14938823E+02</pdfrwt>
<pdfrwt beam="1">  1       -2 0.99743513E+00 0.14938823E+02</pdfrwt>
<totfact>-0.20760231E-13</totfact>
</mgrwt>
</event>
<event>
 4    1  0.5245809E-019  0.1493109E+02  0.7818608E-02  0.1870179E+00
          2   -1    0    0  501    0  0.00000000000E+00  0.00000000000E+00  0.12035589477E+03  0.12035589480E+03  0.25500000000E-02 0. -1.
         -2   -1    0    0    0  501 -0.00000000000E+00 -0.00000000000E+00 -0.46307617817E+00  0.46308319910E+00  0.25500000000E-02 0.  1.
         31    1    1    2    0    0  0.22791690776E+00 -0.36285960276E+00  0.57494265179E+02  0.57976142229E+02  0.74470750000E+01 0.  1.
        -31    1    1    2    0    0 -0.22791690776E+00  0.36285960276E+00  0.62398553416E+02  0.62842835771E+02  0.74470750000E+01 0. -1.
<mgrwt>
<rscale>  0 0.14931092E+02</rscale>
<asrwt>0</asrwt>
<pdfrwt beam="1">  1        2 0.99901584E+00 0.14931092E+02</pdfrwt>
<pdfrwt beam="2">  1       -2 0.98359231E+00 0.14931092E+02</pdfrwt>
<totfact> 0.21056289E-13</totfact>
</mgrwt>
</event>
<event>
 4    1 -0.5245809E-019  0.1498567E+02  0.7818608E-02  0.1868506E+00
          2   -1    0    0  501    0  0.00000000000E+00  0.00000000000E+00  0.11936488804E+03  0.11936488807E+03  0.25500000000E-02 0.  1.
         -2   -1    0    0    0  501 -0.00000000000E+00 -0.00000000000E+00 -0.47034055102E+00  0.47034746352E+00  0.25500000000E-02 0. -1.
         31    1    1    2    0    0 -0.71090874138E+00  0.38587157154E+00  0.58077325850E+02  0.58558423749E+02  0.74470750000E+01 0.  1.
        -31    1    1    2    0    0  0.71090874138E+00 -0.38587157154E+00  0.60817221638E+02  0.61276811780E+02  0.74470750000E+01 0.  1.
<mgrwt>
<rscale>  0 0.14985668E+02</rscale>
<asrwt>0</asrwt>
<pdfrwt beam="1">  1        2 0.99088157E+00 0.14985668E+02</pdfrwt>
<pdfrwt beam="2">  1       -2 0.99892955E+00 0.14985668E+02</pdfrwt>
<totfact>-0.57134562E-14</totfact>
</mgrwt>
</event>
<event>
 4    1 -0.5245809E-019  0.1499205E+02  0.7818608E-02  0.1868311E+00
          2   -1    0    0  501    0  0.00000000000E+00  0.00000000000E+00  0.11978532474E+03  0.11978532477E+03  0.25500000000E-02 0.  1.
         -2   -1    0    0    0  501 -0.00000000000E+00 -0.00000000000E+00 -0.46908880437E+00  0.46909573531E+00  0.25500000000E-02 0. -1.
         31    1    1    2    0    0  0.71515051603E+00 -0.40512354235E+00  0.61554278166E+02  0.62008577245E+02  0.74470750000E+01 0.  1.
        -31    1    1    2    0    0 -0.71515051603E+00  0.40512354235E+00  0.57761957768E+02  0.58245843256E+02  0.74470750000E+01 0.  1.
<mgrwt>
<rscale>  0 0.14992048E+02</rscale>
<asrwt>0</asrwt>
<pdfrwt beam="1">  1        2 0.99434769E+00 0.14992048E+02</pdfrwt>
<pdfrwt beam="2">  1       -2 0.99629517E+00 0.14992048E+02</pdfrwt>
<totfact>-0.11489013E-13</totfact>
</mgrwt>
</event>
<event>
 4    1 -0.5245809E-019  0.1498741E+02  0.7818608E-02  0.1868453E+00
         -2   -1    0    0    0  501 -0.00000000000E+00  0.00000000000E+00  0.11988260402E+03  0.11988260405E+03  0.25500000000E-02 0.  1.
          2   -1    0    0  501    0  0.00000000000E+00 -0.00000000000E+00 -0.46841841988E+00  0.46842536074E+00  0.25500000000E-02 0. -1.
         31    1    1    2    0    0 -0.28934363211E+00 -0.75793465688E+00  0.61283303381E+02  0.61739455650E+02  0.74470750000E+01 0. -1.
        -31    1    1    2    0    0  0.28934363211E+00  0.75793465688E+00  0.58130882221E+02  0.58611573759E+02  0.74470750000E+01 0.  1.
<mgrwt>
<rscale>  0 0.14987413E+02</rscale>
<asrwt>0</asrwt>
<pdfrwt beam="2">  1        2 0.99488005E+00 0.14987413E+02</pdfrwt>
<pdfrwt beam="1">  1       -2 0.99514652E+00 0.14987413E+02</pdfrwt>
<totfact>-0.12025032E-13</totfact>
</mgrwt>
</event>
<event>
 4    1 -0.5245809E-019  0.1492298E+02  0.7818608E-02  0.1870428E+00
         -2   -1    0    0    0  501 -0.00000000000E+00  0.00000000000E+00  0.11960091760E+03  0.11960091763E+03  0.25500000000E-02 0.  1.
          2   -1    0    0  501    0  0.00000000000E+00 -0.00000000000E+00 -0.46549349290E+00  0.46550047737E+00  0.25500000000E-02 0. -1.
         31    1    1    2    0    0  0.20049672609E+00  0.41734586714E+00  0.59376085546E+02  0.59843068415E+02  0.74470750000E+01 0. -1.
        -31    1    1    2    0    0 -0.20049672609E+00 -0.41734586714E+00  0.59759338566E+02  0.60223349694E+02  0.74470750000E+01 0. -1.
<mgrwt>
<rscale>  0 0.14922985E+02</rscale>
<asrwt>0</asrwt>
<pdfrwt beam="2">  1        2 0.98868288E+00 0.14922985E+02</pdfrwt>
<pdfrwt beam="1">  1       -2 0.99279315E+00 0.14922985E+02</pdfrwt>
<totfact>-0.17107224E-13</totfact>
</mgrwt>
</event>
<event>
 4    1  0.5245809E-019  0.1493924E+02  0.7818608E-02  0.1869928E+00
          2   -1    0    0  501    0  0.00000000000E+00  0.00000000000E+00  0.12029039199E+03  0.12029039201E+03  0.25500000000E-02 0.  1.
         -2   -1    0    0    0  501 -0.00000000000E+00 -0.00000000000E+00 -0.46383430656E+00  0.46384131602E+00  0.25500000000E-02 0. -1.
         31    1    1    2    0    0  0.16024226714E+00 -0.50591401432E+00  0.58023116734E+02  0.58501475435E+02  0.74470750000E+01 0.  1.
        -31    1    1    2    0    0 -0.16024226714E+00  0.50591401432E+00  0.61803440948E+02  0.62252757895E+02  0.74470750000E+01 0.  1.
<mgrwt>
<rscale>  0 0.14939242E+02</rscale>
<asrwt>0</asrwt>
<pdfrwt beam="1">  1        2 0.99848049E+00 0.14939242E+02</pdfrwt>
<pdfrwt beam="2">  1       -2 0.98519434E+00 0.14939242E+02</pdfrwt>
<totfact> 0.20179227E-13</totfact>
</mgrwt>
</event>
<event>
 4    1 -0.5245809E-019  0.1498475E+02  0.7818608E-02  0.1868534E+00
          2   -1    0    0  501    0  0.00000000000E+00  0.00000000000E+00  0.11927176941E+03  0.11927176943E+03  0.25500000000E-02 0. -1.
         -2   -1    0    0    0  501 -0.00000000000E+00 -0.00000000000E+00 -0.47065026551E+00  0.47065717345E+00  0.25500000000E-02 0.  1.
         31    1    1    2    0    0 -0.67001496288E+00  0.47729006989E+00  0.59342252997E+02  0.59813365084E+02  0.74470750000E+01 0. -1.
        -31    1    1    2    0    0  0.67001496288E+00 -0.47729006989E+00  0.59458866142E+02  0.59929061522E+02  0.74470750000E+01 0. -1.
<mgrwt>
<rscale>  0 0.14984753E+02</rscale>
<asrwt>0</asrwt>
<pdfrwt beam="1">  1        2 0.99011416E+00 0.14984753E+02</pdfrwt>
<pdfrwt beam="2">  1       -2 0.99958167E+00 0.14984753E+02</pdfrwt>
<totfact>-0.25159354E-14</totfact>
</mgrwt>
</event>
<event>
 4    1 -0.5245809E-019  0.1491818E+02  0.7818608E-02  0.1870576E+00
          2   -1    0    0  501    0  0.00000000000E+00  0.00000000000E+00  0.11873382546E+03  0.11873382548E+03  0.25500000000E-02 0.  1.
         -2   -1    0    0    0  501 -0.00000000000E+00 -0.00000000000E+00 -0.46859077786E+00  0.46859771616E+00  0.25500000000E-02 0. -1.
         31    1    1    2    0    0  0.30164810070E+00 -0.84492203844E-01  0.56859428682E+02  0.57345895116E+02  0.74470750000E+01 0. -1.
        -31    1    1    2    0    0 -0.30164810070E+00  0.84492203844E-01  0.61405805996E+02  0.61856528083E+02  0.74470750000E+01 0.  1.
<mgrwt>
<rscale>  0 0.14918176E+02</rscale>
<asrwt>0</asrwt>
<pdfrwt beam="1">  1        2 0.98564904E+00 0.14918176E+02</pdfrwt>
<pdfrwt beam="2">  1       -2 0.99520721E+00 0.14918176E+02</pdfrwt>
<totfact>-0.31102581E-13</totfact>
</mgrwt>
</event>
<event>
 4    1  0.5245809E-019  0.1490556E+02  0.7818608E-02  0.1870964E+00
          2   -1    0    0  501    0  0.00000000000E+00  0.00000000000E+00  0.12019576360E+03  0.12019576363E+03  0.25500000000E-02 0. -1.
         -2   -1    0    0    0  501 -0.00000000000E+00 -0.00000000000E+00 -0.46210874724E+00  0.46211578286E+00  0.25500000000E-02 0.  1.
         31    1    1    2    0    0 -0.25562506926E+00  0.44023910724E-01  0.58788923788E+02  0.59259292677E+02  0.74470750000E+01 0.  1.
        -31    1    1    2    0    0  0.25562506926E+00 -0.44023910724E-01  0.60944731064E+02  0.61398586733E+02  0.74470750000E+01 0.  1.
<mgrwt>
<rscale>  0 0.14905561E+02</rscale>
<asrwt>0</asrwt>
<pdfrwt beam="1">  1        2 0.99768377E+00 0.14905561E+02</pdfrwt>
<pdfrwt beam="2">  1       -2 0.98154033E+00 0.14905561E+02</pdfrwt>
<totfact> 0.65934488E-13</totfact>
</mgrwt>
</event>
<event>
 4    1 -0.5245809E-019  0.1491005E+02  0.7818608E-02  0.1870826E+00
          2   -1    0    0  501    0  0.00000000000E+00  0.00000000000E+00  0.11856674509E+03  0.11856674512E+03  0.25500000000E-02 0. -1.
         -2   -1    0    0    0  501 -0.00000000000E+00 -0.00000000000E+00 -0.46874024675E+00  0.46874718284E+00  0.25500000000E-02 0.  1.
         31    1    1    2    0    0  0.21423962637E+00 -0.24329494506E+00  0.59973260875E+02  0.60434725424E+02  0.74470750000E+01 0. -1.
        -31    1    1    2    0    0 -0.21423962637E+00  0.24329494506E+00  0.58124743971E+02  0.58600766879E+02  0.74470750000E+01 0.  1.
<mgrwt>
<rscale>  0 0.14910053E+02</rscale>
<asrwt>0</asrwt>
<pdfrwt beam="1">  1        2 0.98426874E+00 0.14910053E+02</pdfrwt>
<pdfrwt beam="2">  1       -2 0.99551788E+00 0.14910053E+02</pdfrwt>
<totfact>-0.38277910E-13</totfact>
</mgrwt>
</event>
<event>
 4    1 -0.5245809E-019  0.1490752E+02  0.7818608E-02  0.1870904E+00
         -2   -1    0    0    0  501 -0.00000000000E+00  0.00000000000E+00  0.11949979719E+03  0.11949979722E+03  0.25500000000E-02 0.  1.
          2   -1    0    0  501    0  0.00000000000E+00 -0.00000000000E+00 -0.46492237500E+00  0.46492936805E+00  0.25500000000E-02 0. -1.
         31    1    1    2    0    0  0.17188952317E+00  0.24310522113E+00  0.60360612322E+02  0.60819002722E+02  0.74470750000E+01 0.  1.
        -31    1    1    2    0    0 -0.17188952317E+00 -0.24310522113E+00  0.58674262493E+02  0.59145723864E+02  0.74470750000E+01 0.  1.
<mgrwt>
<rscale>  0 0.14907522E+02</rscale>
<asrwt>0</asrwt>
<pdfrwt beam="2">  1        2 0.98747133E+00 0.14907522E+02</pdfrwt>
<pdfrwt beam="1">  1       -2 0.99195229E+00 0.14907522E+02</pdfrwt>
<totfact>-0.15519965E-13</totfact>
</mgrwt>
</event>
<event>
 4    1 -0.5245809E-019  0.1492215E+02  0.7818608E-02  0.1870453E+00
         -2   -1    0    0    0  501 -0.00000000000E+00  0.00000000000E+00  0.11990853630E+03  0.11990853633E+03  0.25500000000E-02 0. -1.
          2   -1    0    0  501    0  0.00000000000E+00 -0.00000000000E+00 -0.46424753781E+00  0.46425454103E+00  0.25500000000E-02 0.  1.
         31    1    1    2    0    0 -0.36571721521E+00 -0.91869244470E-01  0.61803150661E+02  0.62251349758E+02  0.74470750000E+01 0. -1.
        -31    1    1    2    0    0  0.36571721521E+00  0.91869244470E-01  0.57641138103E+02  0.58121441112E+02  0.74470750000E+01 0. -1.
<mgrwt>
<rscale>  0 0.14922153E+02</rscale>
<asrwt>0</asrwt>
<pdfrwt beam="2">  1        2 0.98605659E+00 0.14922153E+02</pdfrwt>
<pdfrwt beam="1">  1       -2 0.99532646E+00 0.14922153E+02</pdfrwt>
<totfact>-0.29045089E-13</totfact>
</mgrwt>
</event>
<event>
 4    1 -0.5245809E-019  0.1494388E+02  0.7818608E-02  0.1869786E+00
         -2   -1    0    0    0  501 -0.00000000000E+00  0.00000000000E+00  0.12009035891E+03  0.12009035894E+03  0.25500000000E-02 0. -1.
          2   -1    0    0  501    0  0.00000000000E+00 -0.00000000000E+00 -0.46489535580E+00  0.46490234926E+00  0.25500000000E-02 0.  1.
         31    1    1    2    0    0 -0.57590755142E+00 -0.10026815878E+00  0.61191823128E+02  0.61646085577E+02  0.74470750000E+01 0.  1.
        -31    1    1    2    0    0  0.57590755142E+00  0.10026815878E+00  0.58433640426E+02  0.58909175709E+02  0.74470750000E+01 0. -1.
<mgrwt>
<rscale>  0 0.14943878E+02</rscale>
<asrwt>0</asrwt>
<pdfrwt beam="2">  1        2 0.98743299E+00 0.14943878E+02</pdfrwt>
<pdfrwt beam="1">  1       -2 0.99683525E+00 0.14943878E+02</pdfrwt>
<totfact>-0.19932041E-13</totfact>
</mgrwt>
</event>
<event>
 4    1 -0.5245809E-019  0.1493418E+02  0.7818608E-02  0.1870084E+00
         -2   -1    0    0    0  501 -0.00000000000E+00  0.00000000000E+00  0.12004697568E+03  0.12004697571E+03  0.25500000000E-02 0. -1.
          2   -1    0    0  501    0  0.00000000000E+00 -0.00000000000E+00 -0.46445975028E+00  0.46446675030E+00  0.25500000000E-02 0.  1.
         31    1    1    2    0    0  0.73630935622E-01 -0.23338661657E+00  0.63732903364E+02  0.64166983629E+02  0.74470750000E+01 0. -1.
        -31    1    1    2    0    0 -0.73630935622E-01  0.23338661657E+00  0.55849612565E+02  0.56344458827E+02  0.74470750000E+01 0.  1.
<mgrwt>
<rscale>  0 0.14934177E+02</rscale>
<asrwt>0</asrwt>
<pdfrwt beam="2">  1        2 0.98650997E+00 0.14934177E+02</pdfrwt>
<pdfrwt beam="1">  1       -2 0.99647292E+00 0.14934177E+02</pdfrwt>
<totfact>-0.24212599E-13</totfact>
</mgrwt>
</event>
<event>
 4    1 -0.5245809E-019  0.1499042E+02  0.7818608E-02  0.1868361E+00
          2   -1    0    0  501    0  0.00000000000E+00  0.00000000000E+00  0.11977947706E+03  0.11977947709E+03  0.25500000000E-02 0. -1.
         -2   -1    0    0    0  501 -0.00000000000E+00 -0.00000000000E+00 -0.46900958648E+00  0.46901651859E+00  0.25500000000E-02 0.  1.
         31    1    1    2    0    0  0.13527666376E+00  0.83024866332E+00  0.58791168700E+02  0.59266922105E+02  0.74470750000E+01 0.  1.
        -31    1    1    2    0    0 -0.13527666376E+00 -0.83024866332E+00  0.60519298772E+02  0.60981571500E+02  0.74470750000E+01 0.  1.
<mgrwt>
<rscale>  0 0.14990416E+02</rscale>
<asrwt>0</asrwt>
<pdfrwt beam="1">  1        2 0.99429868E+00 0.14990416E+02</pdfrwt>
<pdfrwt beam="2">  1       -2 0.99612739E+00 0.14990416E+02</pdfrwt>
<totfact>-0.11786447E-13</totfact>
</mgrwt>
</event>
<event>
 4    1 -0.5245809E-019  0.1489886E+02  0.7818608E-02  0.1871171E+00
          2   -1    0    0  501    0  0.00000000000E+00  0.00000000000E+00  0.11836840162E+03  0.11836840165E+03  0.25500000000E-02 0.  1.
         -2   -1    0    0    0  501 -0.00000000000E+00 -0.00000000000E+00 -0.46882099480E+00  0.46882792970E+00  0.25500000000E-02 0. -1.
         31    1    1    2    0    0 -0.76724999945E-01  0.17034529099E+00  0.59055365521E+02  0.59523356988E+02  0.74470750000E+01 0.  1.
        -31    1    1    2    0    0  0.76724999945E-01 -0.17034529099E+00  0.58844215108E+02  0.59313872593E+02  0.74470750000E+01 0.  1.
<mgrwt>
<rscale>  0 0.14898860E+02</rscale>
<asrwt>0</asrwt>
<pdfrwt beam="1">  1        2 0.98262936E+00 0.14898860E+02</pdfrwt>
<pdfrwt beam="2">  1       -2 0.99568213E+00 0.14898860E+02</pdfrwt>
<totfact>-0.49831886E-13</totfact>
</mgrwt>
</event>
<event>
 4    1 -0.5245809E-019  0.1489999E+02  0.7818608E-02  0.1871136E+00
          2   -1    0    0  501    0  0.00000000000E+00  0.00000000000E+00  0.11844343198E+03  0.11844343200E+03  0.25500000000E-02 0.  1.
         -2   -1    0    0    0  501 -0.00000000000E+00 -0.00000000000E+00 -0.46859478481E+00  0.46860172306E+00  0.25500000000E-02 0. -1.
         31    1    1    2    0    0  0.19370411296E+00 -0.63198806377E-01  0.58635250384E+02  0.59106624240E+02  0.74470750000E+01 0.  1.
        -31    1    1    2    0    0 -0.19370411296E+00  0.63198806377E-01  0.59339586808E+02  0.59805409488E+02  0.74470750000E+01 0. -1.
<mgrwt>
<rscale>  0 0.14899985E+02</rscale>
<asrwt>0</asrwt>
<pdfrwt beam="1">  1        2 0.98324789E+00 0.14899985E+02</pdfrwt>
<pdfrwt beam="2">  1       -2 0.99520609E+00 0.14899985E+02</pdfrwt>
<totfact>-0.46153360E-13</totfact>
</mgrwt>
</event>
<event>
 4    1 -0.5245809E-019  0.1493168E+02  0.7818608E-02  0.1870160E+00
         -2   -1    0    0    0  501 -0.00000000000E+00  0.00000000000E+00  0.11991426354E+03  0.11991426357E+03  0.25500000000E-02 0.  1.
          2   -1    0    0  501    0  0.00000000000E+00 -0.00000000000E+00 -0.46481861118E+00  0.46482560579E+00  0.25500000000E-02 0. -1.
         31    1    1    2    0    0  0.74785132599E-01 -0.20418194010E+00  0.55836578253E+02  0.56331427109E+02  0.74470750000E+01 0. -1.
        -31    1    1    2    0    0 -0.74785132599E-01  0.20418194010E+00  0.63612866680E+02  0.64047662068E+02  0.74470750000E+01 0.  1.
<mgrwt>
<rscale>  0 0.14931685E+02</rscale>
<asrwt>0</asrwt>
<pdfrwt beam="2">  1        2 0.98726502E+00 0.14931685E+02</pdfrwt>
<pdfrwt beam="1">  1       -2 0.99537853E+00 0.14931685E+02</pdfrwt>
<totfact>-0.24273402E-13</totfact>
</mgrwt>
</event>
<event>
 4    1 -0.5245809E-019  0.1492977E+02  0.7818608E-02  0.1870219E+00
         -2   -1    0    0    0  501 -0.00000000000E+00  0.00000000000E+00  0.11993435305E+03  0.11993435308E+03  0.25500000000E-02 0. -1.
          2   -1    0    0  501    0  0.00000000000E+00 -0.00000000000E+00 -0.46462176701E+00  0.46462876458E+00  0.25500000000E-02 0.  1.
         31    1    1    2    0    0  0.18593226786E+00  0.48062992095E+00  0.59780440385E+02  0.60244713915E+02  0.74470750000E+01 0. -1.
        -31    1    1    2    0    0 -0.18593226786E+00 -0.48062992095E+00  0.59689290901E+02  0.60154267930E+02  0.74470750000E+01 0. -1.
<mgrwt>
<rscale>  0 0.14929773E+02</rscale>
<asrwt>0</asrwt>
<pdfrwt beam="2">  1        2 0.98684919E+00 0.14929773E+02</pdfrwt>
<pdfrwt beam="1">  1       -2 0.99554302E+00 0.14929773E+02</pdfrwt>
<totfact>-0.25492122E-13</totfact>
</mgrwt>
</event>
<event>
 4    1 -0.5245809E-019  0.1498450E+02  0.7818608E-02  0.1868542E+00
          2   -1    0    0  501    0  0.00000000000E+00  0.00000000000E+00  0.11933735750E+03  0.11933735752E+03  0.25500000000E-02 0. -1.
         -2   -1    0    0    0  501 -0.00000000000E+00 -0.00000000000E+00 -0.47037601490E+00  0.47038292687E+00  0.25500000000E-02 0.  1.
         31    1    1    2    0    0 -0.12512659203E+00  0.69588677987E+00  0.56088707629E+02  0.56585351148E+02  0.74470750000E+01 0. -1.
        -31    1    1    2    0    0  0.12512659203E+00 -0.69588677987E+00  0.62778273852E+02  0.63222389301E+02  0.74470750000E+01 0. -1.
<mgrwt>
<rscale>  0 0.14984505E+02</rscale>
<asrwt>0</asrwt>
<pdfrwt beam="1">  1        2 0.99065422E+00 0.14984505E+02</pdfrwt>
<pdfrwt beam="2">  1       -2 0.99900366E+00 0.14984505E+02</pdfrwt>
<totfact>-0.54545710E-14</totfact>
</mgrwt>
</event>
<event>
 4    1 -0.5245809E-019  0.1499609E+02  0.7818608E-02  0.1868188E+00
          2   -1    0    0  501    0  0.00000000000E+00  0.00000000000E+00  0.11959997271E+03  0.11959997273E+03  0.25500000000E-02 0.  1.
         -2   -1    0    0    0  501 -0.00000000000E+00 -0.00000000000E+00 -0.47006901551E+00  0.47007593199E+00  0.25500000000E-02 0. -1.
         31    1    1    2    0    0  0.32710546824E+00 -0.44094390091E+00  0.54132717474E+02  0.54645324198E+02  0.74470750000E+01 0. -1.
        -31    1    1    2    0    0 -0.32710546824E+00  0.44094390091E+00  0.64997186217E+02  0.65424724468E+02  0.74470750000E+01 0.  1.
<mgrwt>
<rscale>  0 0.14996087E+02</rscale>
<asrwt>0</asrwt>
<pdfrwt beam="1">  1        2 0.99282317E+00 0.14996087E+02</pdfrwt>
<pdfrwt beam="2">  1       -2 0.99836282E+00 0.14996087E+02</pdfrwt>
<totfact>-0.71860155E-14</totfact>
</mgrwt>
</event>
<event>
 4    1 -0.5245809E-019  0.1496444E+02  0.7818608E-02  0.1869156E+00
          2   -1    0    0  501    0  0.00000000000E+00  0.00000000000E+00  0.11973777630E+03  0.11973777633E+03  0.25500000000E-02 0. -1.
         -2   -1    0    0    0  501 -0.00000000000E+00 -0.00000000000E+00 -0.46754805731E+00  0.46755501109E+00  0.25500000000E-02 0.  1.
         31    1    1    2    0    0 -0.20413136986E+00  0.61653309980E+00  0.62211550601E+02  0.62659059496E+02  0.74470750000E+01 0. -1.
        -31    1    1    2    0    0  0.20413136986E+00 -0.61653309980E+00  0.57058677646E+02  0.57546271847E+02  0.74470750000E+01 0. -1.
<mgrwt>
<rscale>  0 0.14964436E+02</rscale>
<asrwt>0</asrwt>
<pdfrwt beam="1">  1        2 0.99394178E+00 0.14964436E+02</pdfrwt>
<pdfrwt beam="2">  1       -2 0.99303402E+00 0.14964436E+02</pdfrwt>
<totfact>-0.11454738E-13</totfact>
</mgrwt>
</event>
<event>
 4    1 -0.5245809E-019  0.1493184E+02  0.7818608E-02  0.1870155E+00
         -2   -1    0    0    0  501 -0.00000000000E+00  0.00000000000E+00  0.12015337683E+03  0.12015337686E+03  0.25500000000E-02 0.  1.
          2   -1    0    0  501    0  0.00000000000E+00 -0.00000000000E+00 -0.46390345371E+00  0.46391046211E+00  0.25500000000E-02 0. -1.
         31    1    1    2    0    0  0.34851137015E+00  0.22899857930E+00  0.62489099178E+02  0.62932665148E+02  0.74470750000E+01 0.  1.
        -31    1    1    2    0    0 -0.34851137015E+00 -0.22899857930E+00  0.57200374197E+02  0.57684622170E+02  0.74470750000E+01 0. -1.
<mgrwt>
<rscale>  0 0.14931844E+02</rscale>
<asrwt>0</asrwt>
<pdfrwt beam="2">  1        2 0.98533632E+00 0.14931844E+02</pdfrwt>
<pdfrwt beam="1">  1       -2 0.99734812E+00 0.14931844E+02</pdfrwt>
<totfact>-0.24220830E-13</totfact>
</mgrwt>
</event>
<event>
 4    1 -0.5245809E-019  0.1499111E+02  0.7818608E-02  0.1868340E+00
          2   -1    0    0  501    0  0.00000000000E+00  0.00000000000E+00  0.12045804154E+03  0.12045804157E+03  0.25500000000E-02 0. -1.
         -2   -1    0    0    0  501 -0.00000000000E+00 -0.00000000000E+00 -0.46641056643E+00  0.46641753717E+00  0.25500000000E-02 0.  1.
         31    1    1    2    0    0  0.36061706059E-02 -0.65155011899E+00  0.64413013291E+02  0.64845352477E+02  0.74470750000E+01 0.  1.
        -31    1    1    2    0    0 -0.36061706059E-02  0.65155011899E+00  0.55578617685E+02  0.56079106630E+02  0.74470750000E+01 0.  1.
<mgrwt>
<rscale>  0 0.14991108E+02</rscale>
<asrwt>0</asrwt>
<pdfrwt beam="1">  1        2 0.99988803E+00 0.14991108E+02</pdfrwt>
<pdfrwt beam="2">  1       -2 0.99065048E+00 0.14991108E+02</pdfrwt>
<totfact>-0.97486296E-16</totfact>
</mgrwt>
</event>
<event>
 4    1 -0.5245809E-019  0.1492437E+02  0.7818608E-02  0.1870385E+00
          2   -1    0    0  501    0  0.00000000000E+00  0.00000000000E+00  0.11884888943E+03  0.11884888946E+03  0.25500000000E-02 0.  1.
         -2   -1    0    0    0  501 -0.00000000000E+00 -0.00000000000E+00 -0.46852599990E+00  0.46853293917E+00  0.25500000000E-02 0. -1.
         31    1    1    2    0    0 -0.31197034845E+00  0.34126072443E+00  0.58332836649E+02  0.58808099288E+02  0.74470750000E+01 0. -1.
        -31    1    1    2    0    0  0.31197034845E+00 -0.34126072443E+00  0.60047526783E+02  0.60509323110E+02  0.74470750000E+01 0.  1.
<mgrwt>
<rscale>  0 0.14924371E+02</rscale>
<asrwt>0</asrwt>
<pdfrwt beam="1">  1        2 0.98659993E+00 0.14924371E+02</pdfrwt>
<pdfrwt beam="2">  1       -2 0.99507396E+00 0.14924371E+02</pdfrwt>
<totfact>-0.27024741E-13</totfact>
</mgrwt>
</event>
<event>
 4    1 -0.5245809E-019  0.1489986E+02  0.7818608E-02  0.1871140E+00
          2   -1    0    0  501    0  0.00000000000E+00  0.00000000000E+00  0.11818755942E+03  0.11818755944E+03  0.25500000000E-02 0. -1.
         -2   -1    0    0    0  501 -0.00000000000E+00 -0.00000000000E+00 -0.46960119459E+00  0.46960811796E+00  0.25500000000E-02 0.  1.
         31    1    1    2    0    0 -0.13898481836E+00  0.14504083417E+00  0.58489566017E+02  0.58962094710E+02  0.74470750000E+01 0. -1.
        -31    1    1    2    0    0  0.13898481836E+00 -0.14504083417E+00  0.59228392205E+02  0.59695072852E+02  0.74470750000E+01 0.  1.
<mgrwt>
<rscale>  0 0.14899857E+02</rscale>
<asrwt>0</asrwt>
<pdfrwt beam="1">  1        2 0.98114048E+00 0.14899857E+02</pdfrwt>
<pdfrwt beam="2">  1       -2 0.99732651E+00 0.14899857E+02</pdfrwt>
<totfact>-0.49080312E-13</totfact>
</mgrwt>
</event>
<event>
 4    1 -0.5245809E-019  0.1497127E+02  0.7818608E-02  0.1868946E+00
          2   -1    0    0  501    0  0.00000000000E+00  0.00000000000E+00  0.11970756527E+03  0.11970756529E+03  0.25500000000E-02 0. -1.
         -2   -1    0    0    0  501 -0.00000000000E+00 -0.00000000000E+00 -0.46809350794E+00  0.46810045361E+00  0.25500000000E-02 0.  1.
         31    1    1    2    0    0  0.93129798447E-01 -0.75141181023E+00  0.60023826895E+02  0.60488775934E+02  0.74470750000E+01 0. -1.
        -31    1    1    2    0    0 -0.93129798447E-01  0.75141181023E+00  0.59215644863E+02  0.59686889813E+02  0.74470750000E+01 0.  1.
<mgrwt>
<rscale>  0 0.14971273E+02</rscale>
<asrwt>0</asrwt>
<pdfrwt beam="1">  1        2 0.99369649E+00 0.14971273E+02</pdfrwt>
<pdfrwt beam="2">  1       -2 0.99418701E+00 0.14971273E+02</pdfrwt>
<totfact>-0.13231266E-13</totfact>
</mgrwt>
</event>
<event>
 4    1 -0.5245809E-019  0.1496026E+02  0.7818608E-02  0.1869284E+00
          2   -1    0    0  501    0  0.00000000000E+00  0.00000000000E+00  0.11933437807E+03  0.11933437809E+03  0.25500000000E-02 0.  1.
         -2   -1    0    0    0  501 -0.00000000000E+00 -0.00000000000E+00 -0.46886658128E+00  0.46887351550E+00  0.25500000000E-02 0. -1.
         31    1    1    2    0    0  0.46990235196E+00 -0.34800366644E-01  0.55261053428E+02  0.55762576799E+02  0.74470750000E+01 0.  1.
        -31    1    1    2    0    0 -0.46990235196E+00  0.34800366644E-01  0.63604458058E+02  0.64040674810E+02  0.74470750000E+01 0.  1.
<mgrwt>
<rscale>  0 0.14960257E+02</rscale>
<asrwt>0</asrwt>
<pdfrwt beam="1">  1        2 0.99061711E+00 0.14960257E+02</pdfrwt>
<pdfrwt beam="2">  1       -2 0.99581036E+00 0.14960257E+02</pdfrwt>
<totfact>-0.16142874E-13</totfact>
</mgrwt>
</event>
<event>
 4    1  0.5245809E-019  0.1491173E+02  0.7818608E-02  0.1870774E+00
         -2   -1    0    0    0  501 -0.00000000000E+00  0.00000000000E+00  0.11823379573E+03  0.11823379575E+03  0.25500000000E-02 0. -1.
          2   -1    0    0  501    0  0.00000000000E+00 -0.00000000000E+00 -0.47016587968E+00  0.47017279474E+00  0.25500000000E-02 0.  1.
         31    1    1    2    0    0 -0.23680019419E+00 -0.13848346629E+00  0.57002567278E+02  0.57487623488E+02  0.74470750000E+01 0.  1.
        -31    1    1    2    0    0  0.23680019419E+00  0.13848346629E+00  0.60761062570E+02  0.61216345061E+02  0.74470750000E+01 0. -1.
<mgrwt>
<rscale>  0 0.14911728E+02</rscale>
<asrwt>0</asrwt>
<pdfrwt beam="2">  1        2 0.99852255E+00 0.14911728E+02</pdfrwt>
<pdfrwt beam="1">  1       -2 0.98152746E+00 0.14911728E+02</pdfrwt>
<totfact> 0.46260236E-13</totfact>
</mgrwt>
</event>
<event>
 4    1  0.5245809E-019  0.1494234E+02  0.7818608E-02  0.1869833E+00
          2   -1    0    0  501    0  0.00000000000E+00  0.00000000000E+00  0.12030005850E+03  0.12030005853E+03  0.25500000000E-02 0. -1.
         -2   -1    0    0    0  501 -0.00000000000E+00 -0.00000000000E+00 -0.46398913576E+00  0.46399614287E+00  0.25500000000E-02 0.  1.
         31    1    1    2    0    0 -0.31385840480E+00  0.48968645251E+00  0.61092540674E+02  0.61547508089E+02  0.74470750000E+01 0. -1.
        -31    1    1    2    0    0  0.31385840480E+00 -0.48968645251E+00  0.58743528694E+02  0.59216546584E+02  0.74470750000E+01 0.  1.
<mgrwt>
<rscale>  0 0.14942335E+02</rscale>
<asrwt>0</asrwt>
<pdfrwt beam="1">  1        2 0.99856170E+00 0.14942335E+02</pdfrwt>
<pdfrwt beam="2">  1       -2 0.98552223E+00 0.14942335E+02</pdfrwt>
<totfact> 0.17472816E-13</totfact>
</mgrwt>
</event>
<event>
 4    1  0.5245809E-019  0.1491850E+02  0.7818608E-02  0.1870566E+00
         -2   -1    0    0    0  501 -0.00000000000E+00  0.00000000000E+00  0.11878087731E+03  0.11878087734E+03  0.25500000000E-02 0.  1.
          2   -1    0    0  501    0  0.00000000000E+00 -0.00000000000E+00 -0.46842561693E+00  0.46843255769E+00  0.25500000000E-02 0. -1.
         31    1    1    2    0    0  0.10131313751E+00  0.67370535229E-01  0.62419759289E+02  0.62862549096E+02  0.74470750000E+01 0.  1.
        -31    1    1    2    0    0 -0.10131313751E+00 -0.67370535229E-01  0.55892692407E+02  0.56386760802E+02  0.74470750000E+01 0. -1.
<mgrwt>
<rscale>  0 0.14918501E+02</rscale>
<asrwt>0</asrwt>
<pdfrwt beam="2">  1        2 0.99485936E+00 0.14918501E+02</pdfrwt>
<pdfrwt beam="1">  1       -2 0.98603673E+00 0.14918501E+02</pdfrwt>
<totfact> 0.35731004E-13</totfact>
</mgrwt>
</event>
<event>
 4    1  0.5245809E-019  0.1489583E+02  0.7818608E-02  0.1871264E+00
          2   -1    0    0  501    0  0.00000000000E+00  0.00000000000E+00  0.12002654053E+03  0.12002654055E+03  0.25500000000E-02 0.  1.
         -2   -1    0    0    0  501 -0.00000000000E+00 -0.00000000000E+00 -0.46215627895E+00  0.46216331385E+00  0.25500000000E-02 0. -1.
         31    1    1    2    0    0  0.87809635363E-01 -0.63829832746E-01  0.59563054879E+02  0.60026895783E+02  0.74470750000E+01 0. -1.
        -31    1    1    2    0    0 -0.87809635363E-01  0.63829832746E-01  0.60001329368E+02  0.60461808084E+02  0.74470750000E+01 0. -1.
<mgrwt>
<rscale>  0 0.14895831E+02</rscale>
<asrwt>0</asrwt>
<pdfrwt beam="1">  1        2 0.99628491E+00 0.14895831E+02</pdfrwt>
<pdfrwt beam="2">  1       -2 0.98163560E+00 0.14895831E+02</pdfrwt>
<totfact> 0.89241093E-13</totfact>
</mgrwt>
</event>
<event>
 4    1  0.5245809E-019  0.1492287E+02  0.7818608E-02  0.1870431E+00
          2   -1    0    0  501    0  0.00000000000E+00  0.00000000000E+00  0.11974893528E+03  0.11974893530E+03  0.25500000000E-02 0. -1.
         -2   -1    0    0    0  501 -0.00000000000E+00 -0.00000000000E+00 -0.46491101435E+00  0.46491800757E+00  0.25500000000E-02 0.  1.
         31    1    1    2    0    0  0.33080894140E+00  0.22906665807E+00  0.57801703080E+02  0.58280852011E+02  0.74470750000E+01 0.  1.
        -31    1    1    2    0    0 -0.33080894140E+00 -0.22906665807E+00  0.61482321183E+02  0.61933001302E+02  0.74470750000E+01 0.  1.
<mgrwt>
<rscale>  0 0.14922871E+02</rscale>
<asrwt>0</asrwt>
<pdfrwt beam="1">  1        2 0.99401225E+00 0.14922871E+02</pdfrwt>
<pdfrwt beam="2">  1       -2 0.98745526E+00 0.14922871E+02</pdfrwt>
<totfact> 0.21960215E-13</totfact>
</mgrwt>
</event>
<event>
 4    1  0.5245809E-019  0.1490534E+02  0.7818608E-02  0.1870971E+00
         -2   -1    0    0    0  501 -0.00000000000E+00  0.00000000000E+00  0.11829951465E+03  0.11829951468E+03  0.25500000000E-02 0.  1.
          2   -1    0    0  501    0  0.00000000000E+00 -0.00000000000E+00 -0.46950236271E+00  0.46950928754E+00  0.25500000000E-02 0. -1.
         31    1    1    2    0    0 -0.11444536442E+00 -0.52986020011E-02  0.61027149473E+02  0.61479956284E+02  0.74470750000E+01 0.  1.
        -31    1    1    2    0    0  0.11444536442E+00  0.52986020011E-02  0.56802862815E+02  0.57289067681E+02  0.74470750000E+01 0.  1.
<mgrwt>
<rscale>  0 0.14905343E+02</rscale>
<asrwt>0</asrwt>
<pdfrwt beam="2">  1        2 0.99712118E+00 0.14905343E+02</pdfrwt>
<pdfrwt beam="1">  1       -2 0.98206539E+00 0.14905343E+02</pdfrwt>
<totfact> 0.69534884E-13</totfact>
</mgrwt>
</event>
<event>
 4    1 -0.5245809E-019  0.1503363E+02  0.7818608E-02  0.1867044E+00
          2   -1    0    0  501    0  0.00000000000E+00  0.00000000000E+00  0.12019806515E+03  0.12019806517E+03  0.25500000000E-02 0. -1.
         -2   -1    0    0    0  501 -0.00000000000E+00 -0.00000000000E+00 -0.47007466515E+00  0.47008158155E+00  0.25500000000E-02 0.  1.
         31    1    1    2    0    0  0.26085997299E+00 -0.90575543231E+00  0.56702744461E+02  0.57197452708E+02  0.74470750000E+01 0.  1.
        -31    1    1    2    0    0 -0.26085997299E+00  0.90575543231E+00  0.63025246022E+02  0.63470694049E+02  0.74470750000E+01 0.  1.
<mgrwt>
<rscale>  0 0.15033627E+02</rscale>
<asrwt>0</asrwt>
<pdfrwt beam="1">  1        2 0.99776866E+00 0.15033627E+02</pdfrwt>
<pdfrwt beam="2">  1       -2 0.99839422E+00 0.15033627E+02</pdfrwt>
<totfact>-0.35300062E-14</totfact>
</mgrwt>
</event>
<event>
 4    1 -0.5245809E-019  0.1491527E+02  0.7818608E-02  0.1870665E+00
         -2   -1    0    0    0  501 -0.00000000000E+00  0.00000000000E+00  0.11969868294E+03  0.11969868297E+03  0.25500000000E-02 0.  1.
          2   -1    0    0  501    0  0.00000000000E+00 -0.00000000000E+00 -0.46463249245E+00  0.46463948986E+00  0.25500000000E-02 0. -1.
         31    1    1    2    0    0 -0.34841120548E+00 -0.91623529156E-01  0.60955651843E+02  0.61409935701E+02  0.74470750000E+01 0.  1.
        -31    1    1    2    0    0  0.34841120548E+00  0.91623529156E-01  0.58278398603E+02  0.58753386754E+02  0.74470750000E+01 0. -1.
<mgrwt>
<rscale>  0 0.14915270E+02</rscale>
<asrwt>0</asrwt>
<pdfrwt beam="2">  1        2 0.98686438E+00 0.14915270E+02</pdfrwt>
<pdfrwt beam="1">  1       -2 0.99359442E+00 0.14915270E+02</pdfrwt>
<totfact>-0.24619866E-13</totfact>
</mgrwt>
</event>
<event>
 4    1  0.5245809E-019  0.1491850E+02  0.7818608E-02  0.1870566E+00
          2   -1    0    0  501    0  0.00000000000E+00  0.00000000000E+00  0.12011039309E+03  0.12011039311E+03  0.25500000000E-02 0.  1.
         -2   -1    0    0    0  501 -0.00000000000E+00 -0.00000000000E+00 -0.46324016680E+00  0.46324718525E+00  0.25500000000E-02 0. -1.
         31    1    1    2    0    0  0.41301346748E-01 -0.36551914201E+00  0.58087375863E+02  0.58563960511E+02  0.74470750000E+01 0. -1.
        -31    1    1    2    0    0 -0.41301346748E-01  0.36551914201E+00  0.61559777057E+02  0.62009679788E+02  0.74470750000E+01 0.  1.
<mgrwt>
<rscale>  0 0.14918496E+02</rscale>
<asrwt>0</asrwt>
<pdfrwt beam="1">  1        2 0.99698722E+00 0.14918496E+02</pdfrwt>
<pdfrwt beam="2">  1       -2 0.98393157E+00 0.14918496E+02</pdfrwt>
<totfact> 0.47515594E-13</totfact>
</mgrwt>
</event>
<event>
 4    1  0.5245809E-019  0.1490810E+02  0.7818608E-02  0.1870886E+00
         -2   -1    0    0    0  501 -0.00000000000E+00  0.00000000000E+00  0.11859127058E+03  0.11859127061E+03  0.25500000000E-02 0.  1.
          2   -1    0    0  501    0  0.00000000000E+00 -0.00000000000E+00 -0.46852058503E+00  0.46852752437E+00  0.25500000000E-02 0. -1.
         31    1    1    2    0    0  0.32800963668E-01  0.29874543707E+00  0.58129498977E+02  0.58605357282E+02  0.74470750000E+01 0. -1.
        -31    1    1    2    0    0 -0.32800963668E-01 -0.29874543707E+00  0.59993251018E+02  0.60454440850E+02  0.74470750000E+01 0.  1.
<mgrwt>
<rscale>  0 0.14908101E+02</rscale>
<asrwt>0</asrwt>
<pdfrwt beam="2">  1        2 0.99505401E+00 0.14908101E+02</pdfrwt>
<pdfrwt beam="1">  1       -2 0.98446971E+00 0.14908101E+02</pdfrwt>
<totfact> 0.55692707E-13</totfact>
</mgrwt>
</event>
<event>
 4    1 -0.5245809E-019  0.1491970E+02  0.7818608E-02  0.1870529E+00
         -2   -1    0    0    0  501 -0.00000000000E+00  0.00000000000E+00  0.12008844773E+03  0.12008844776E+03  0.25500000000E-02 0.  1.
          2   -1    0    0  501    0  0.00000000000E+00 -0.00000000000E+00 -0.46339969944E+00  0.46340671547E+00  0.25500000000E-02 0. -1.
         31    1    1    2    0    0  0.15167814203E+00  0.40520542211E+00  0.59351793824E+02  0.59818739153E+02  0.74470750000E+01 0. -1.
        -31    1    1    2    0    0 -0.15167814203E+00 -0.40520542211E+00  0.60273254208E+02  0.60733115321E+02  0.74470750000E+01 0. -1.
<mgrwt>
<rscale>  0 0.14919702E+02</rscale>
<asrwt>0</asrwt>
<pdfrwt beam="2">  1        2 0.98426843E+00 0.14919702E+02</pdfrwt>
<pdfrwt beam="1">  1       -2 0.99680708E+00 0.14919702E+02</pdfrwt>
<totfact>-0.32606666E-13</totfact>
</mgrwt>
</event>
<event>
 4    1  0.5245809E-019  0.1490869E+02  0.7818608E-02  0.1870868E+00
         -2   -1    0    0    0  501 -0.00000000000E+00  0.00000000000E+00  0.11850945071E+03  0.11850945074E+03  0.25500000000E-02 0. -1.
          2   -1    0    0  501    0  0.00000000000E+00 -0.00000000000E+00 -0.46888144423E+00  0.46888837823E+00  0.25500000000E-02 0.  1.
         31    1    1    2    0    0  0.23405421284E+00 -0.23132090759E+00  0.59091549305E+02  0.59559872532E+02  0.74470750000E+01 0. -1.
        -31    1    1    2    0    0 -0.23405421284E+00  0.23132090759E+00  0.58949019964E+02  0.59418466587E+02  0.74470750000E+01 0. -1.
<mgrwt>
<rscale>  0 0.14908695E+02</rscale>
<asrwt>0</asrwt>
<pdfrwt beam="2">  1        2 0.99581468E+00 0.14908695E+02</pdfrwt>
<pdfrwt beam="1">  1       -2 0.98379615E+00 0.14908695E+02</pdfrwt>
<totfact> 0.60232182E-13</totfact>
</mgrwt>
</event>
<event>
 4    1 -0.5245809E-019  0.1492768E+02  0.7818608E-02  0.1870284E+00
         -2   -1    0    0    0  501 -0.00000000000E+00  0.00000000000E+00  0.12014926786E+03  0.12014926788E+03  0.25500000000E-02 0.  1.
          2   -1    0    0  501    0  0.00000000000E+00 -0.00000000000E+00 -0.46366040387E+00  0.46366741596E+00  0.25500000000E-02 0. -1.
         31    1    1    2    0    0  0.32758705555E-01 -0.33006353650E+00  0.56820244390E+02  0.57307147142E+02  0.74470750000E+01 0. -1.
        -31    1    1    2    0    0 -0.32758705555E-01  0.33006353650E+00  0.62865363064E+02  0.63305788158E+02  0.74470750000E+01 0.  1.
<mgrwt>
<rscale>  0 0.14927677E+02</rscale>
<asrwt>0</asrwt>
<pdfrwt beam="2">  1        2 0.98482195E+00 0.14927677E+02</pdfrwt>
<pdfrwt beam="1">  1       -2 0.99731214E+00 0.14927677E+02</pdfrwt>
<totfact>-0.26569140E-13</totfact>
</mgrwt>
</event>
<event>
 4    1 -0.5245809E-019  0.1494805E+02  0.7818608E-02  0.1869658E+00
         -2   -1    0    0    0  501 -0.00000000000E+00  0.00000000000E+00  0.12029939215E+03  0.12029939218E+03  0.25500000000E-02 0. -1.
          2   -1    0    0  501    0  0.00000000000E+00 -0.00000000000E+00 -0.46434664074E+00  0.46435364246E+00  0.25500000000E-02 0.  1.
         31    1    1    2    0    0 -0.28052681756E+00 -0.55939669916E+00  0.60745245833E+02  0.61203230612E+02  0.74470750000E+01 0. -1.
        -31    1    1    2    0    0  0.28052681756E+00  0.55939669916E+00  0.59089799679E+02  0.59560515211E+02  0.74470750000E+01 0.  1.
<mgrwt>
<rscale>  0 0.14948049E+02</rscale>
<asrwt>0</asrwt>
<pdfrwt beam="2">  1        2 0.98627863E+00 0.14948049E+02</pdfrwt>
<pdfrwt beam="1">  1       -2 0.99855914E+00 0.14948049E+02</pdfrwt>
<totfact>-0.12811199E-13</totfact>
</mgrwt>
</event>
<event>
 4    1 -0.5245809E-019  0.1491440E+02  0.7818608E-02  0.1870692E+00
         -2   -1    0    0    0  501 -0.00000000000E+00  0.00000000000E+00  0.11956155920E+03  0.11956155923E+03  0.25500000000E-02 0. -1.
          2   -1    0    0  501    0  0.00000000000E+00 -0.00000000000E+00 -0.46511097439E+00  0.46511796461E+00  0.25500000000E-02 0.  1.
         31    1    1    2    0    0  0.10493872153E+00  0.20317690834E+00  0.57021252431E+02  0.57505951412E+02  0.74470750000E+01 0.  1.
        -31    1    1    2    0    0 -0.10493872153E+00 -0.20317690834E+00  0.62075195800E+02  0.62520725784E+02  0.74470750000E+01 0. -1.
<mgrwt>
<rscale>  0 0.14914398E+02</rscale>
<asrwt>0</asrwt>
<pdfrwt beam="2">  1        2 0.98787233E+00 0.14914398E+02</pdfrwt>
<pdfrwt beam="1">  1       -2 0.99246455E+00 0.14914398E+02</pdfrwt>
<totfact>-0.17460428E-13</totfact>
</mgrwt>
</event>
<event>
 4    1 -0.5245809E-019  0.1498552E+02  0.7818608E-02  0.1868511E+00
         -2   -1    0    0    0  501 -0.00000000000E+00  0.00000000000E+00  0.12041930883E+03  0.12041930885E+03  0.25500000000E-02 0.  1.
          2   -1    0    0  501    0  0.00000000000E+00 -0.00000000000E+00 -0.46621255684E+00  0.46621953053E+00  0.25500000000E-02 0. -1.
         31    1    1    2    0    0  0.96650051255E-01  0.81903938651E+00  0.60365449157E+02  0.60828665486E+02  0.74470750000E+01 0. -1.
        -31    1    1    2    0    0 -0.96650051255E-01 -0.81903938651E+00  0.59587647111E+02  0.60056862897E+02  0.74470750000E+01 0.  1.
<mgrwt>
<rscale>  0 0.14985515E+02</rscale>
<asrwt>0</asrwt>
<pdfrwt beam="2">  1        2 0.99023031E+00 0.14985515E+02</pdfrwt>
<pdfrwt beam="1">  1       -2 0.99956613E+00 0.14985515E+02</pdfrwt>
<totfact>-0.25784540E-14</totfact>
</mgrwt>
</event>
<event>
 4    1  0.5245809E-019  0.1494158E+02  0.7818608E-02  0.1869856E+00
         -2   -1    0    0    0  501 -0.00000000000E+00  0.00000000000E+00  0.11902501213E+03  0.11902501216E+03  0.25500000000E-02 0.  1.
          2   -1    0    0  501    0  0.00000000000E+00 -0.00000000000E+00 -0.46891227609E+00  0.46891920964E+00  0.25500000000E-02 0. -1.
         31    1    1    2    0    0  0.57581674580E-01 -0.33217387635E+00  0.55359123153E+02  0.55858796062E+02  0.74470750000E+01 0. -1.
        -31    1    1    2    0    0 -0.57581674580E-01  0.33217387635E+00  0.63196976702E+02  0.63635135306E+02  0.74470750000E+01 0. -1.
<mgrwt>
<rscale>  0 0.14941580E+02</rscale>
<asrwt>0</asrwt>
<pdfrwt beam="2">  1        2 0.99589690E+00 0.14941580E+02</pdfrwt>
<pdfrwt beam="1">  1       -2 0.98805943E+00 0.14941580E+02</pdfrwt>
<totfact> 0.13127657E-13</totfact>
</mgrwt>
</event>
<event>
 4    1  0.5245809E-019  0.1493272E+02  0.7818608E-02  0.1870129E+00
          2   -1    0    0  501    0  0.00000000000E+00  0.00000000000E+00  0.11971778530E+03  0.11971778533E+03  0.25500000000E-02 0. -1.
         -2   -1    0    0    0  501 -0.00000000000E+00 -0.00000000000E+00 -0.46564582041E+00  0.46565280259E+00  0.25500000000E-02 0.  1.
         31    1    1    2    0    0 -0.26938088690E+00 -0.40254678208E+00  0.61478436778E+02  0.61929732154E+02  0.74470750000E+01 0. -1.
        -31    1    1    2    0    0  0.26938088690E+00  0.40254678208E+00  0.57773702703E+02  0.58253705976E+02  0.74470750000E+01 0. -1.
<mgrwt>
<rscale>  0 0.14932717E+02</rscale>
<asrwt>0</asrwt>
<pdfrwt beam="1">  1        2 0.99376075E+00 0.14932717E+02</pdfrwt>
<pdfrwt beam="2">  1       -2 0.98900890E+00 0.14932717E+02</pdfrwt>
<totfact> 0.80133485E-14</totfact>
</mgrwt>
</event>
<event>
 4    1 -0.5245809E-019  0.1500843E+02  0.7818608E-02  0.1867811E+00
         -2   -1    0    0    0  501 -0.00000000000E+00  0.00000000000E+00  0.11999234438E+03  0.11999234440E+03  0.25500000000E-02 0. -1.
          2   -1    0    0  501    0  0.00000000000E+00 -0.00000000000E+00 -0.46930355849E+00  0.46931048625E+00  0.25500000000E-02 0.  1.
         31    1    1    2    0    0  0.27477916004E+00  0.85811914182E+00  0.61415301217E+02  0.61871722311E+02  0.74470750000E+01 0.  1.
        -31    1    1    2    0    0 -0.27477916004E+00 -0.85811914182E+00  0.58107739602E+02  0.58589932580E+02  0.74470750000E+01 0.  1.
<mgrwt>
<rscale>  0 0.15008431E+02</rscale>
<asrwt>0</asrwt>
<pdfrwt beam="2">  1        2 0.99675621E+00 0.15008431E+02</pdfrwt>
<pdfrwt beam="1">  1       -2 0.99606125E+00 0.15008431E+02</pdfrwt>
<totfact>-0.86449751E-14</totfact>
</mgrwt>
</event>
<event>
 4    1 -0.5245809E-019  0.1495431E+02  0.7818608E-02  0.1869466E+00
          2   -1    0    0  501    0  0.00000000000E+00  0.00000000000E+00  0.11947588841E+03  0.11947588844E+03  0.25500000000E-02 0. -1.
         -2   -1    0    0    0  501 -0.00000000000E+00 -0.00000000000E+00 -0.46793917121E+00  0.46794611917E+00  0.25500000000E-02 0.  1.
         31    1    1    2    0    0  0.54956982227E+00  0.18800881573E+00  0.62183005449E+02  0.62630044444E+02  0.74470750000E+01 0. -1.
        -31    1    1    2    0    0 -0.54956982227E+00 -0.18800881573E+00  0.56824943792E+02  0.57313790114E+02  0.74470750000E+01 0.  1.
<mgrwt>
<rscale>  0 0.14954313E+02</rscale>
<asrwt>0</asrwt>
<pdfrwt beam="1">  1        2 0.99177954E+00 0.14954313E+02</pdfrwt>
<pdfrwt beam="2">  1       -2 0.99385299E+00 0.14954313E+02</pdfrwt>
<totfact>-0.14892041E-13</totfact>
</mgrwt>
</event>
<event>
 4    1  0.5245809E-019  0.1494404E+02  0.7818608E-02  0.1869781E+00
         -2   -1    0    0    0  501 -0.00000000000E+00  0.00000000000E+00  0.11882499649E+03  0.11882499652E+03  0.25500000000E-02 0.  1.
          2   -1    0    0  501    0  0.00000000000E+00 -0.00000000000E+00 -0.46985649893E+00  0.46986341854E+00  0.25500000000E-02 0. -1.
         31    1    1    2    0    0 -0.38316396072E+00 -0.33706496763E+00  0.56508915201E+02  0.56999796935E+02  0.74470750000E+01 0.  1.
        -31    1    1    2    0    0  0.38316396072E+00  0.33706496763E+00  0.61846224791E+02  0.62295063001E+02  0.74470750000E+01 0.  1.
<mgrwt>
<rscale>  0 0.14944044E+02</rscale>
<asrwt>0</asrwt>
<pdfrwt beam="2">  1        2 0.99788776E+00 0.14944044E+02</pdfrwt>
<pdfrwt beam="1">  1       -2 0.98641337E+00 0.14944044E+02</pdfrwt>
<totfact> 0.17689913E-13</totfact>
</mgrwt>
</event>
<event>
 4    1  0.5245809E-019  0.1491869E+02  0.7818608E-02  0.1870560E+00
          2   -1    0    0  501    0  0.00000000000E+00  0.00000000000E+00  0.11959693790E+03  0.11959693793E+03  0.25500000000E-02 0. -1.
         -2   -1    0    0    0  501 -0.00000000000E+00 -0.00000000000E+00 -0.46524107509E+00  0.46524806335E+00  0.25500000000E-02 0.  1.
         31    1    1    2    0    0  0.83882519899E-01 -0.11322406191E+00  0.62815464674E+02  0.63255524535E+02  0.74470750000E+01 0. -1.
        -31    1    1    2    0    0 -0.83882519899E-01  0.11322406191E+00  0.56316232153E+02  0.56806661457E+02  0.74470750000E+01 0.  1.
<mgrwt>
<rscale>  0 0.14918690E+02</rscale>
<asrwt>0</asrwt>
<pdfrwt beam="1">  1        2 0.99275816E+00 0.14918690E+02</pdfrwt>
<pdfrwt beam="2">  1       -2 0.98814871E+00 0.14918690E+02</pdfrwt>
<totfact> 0.16652378E-13</totfact>
</mgrwt>
</event>
<event>
 4    1  0.5245809E-019  0.1490326E+02  0.7818608E-02  0.1871035E+00
          2   -1    0    0  501    0  0.00000000000E+00  0.00000000000E+00  0.12040784292E+03  0.12040784295E+03  0.25500000000E-02 0.  1.
         -2   -1    0    0    0  501 -0.00000000000E+00 -0.00000000000E+00 -0.46115209179E+00  0.46115914201E+00  0.25500000000E-02 0. -1.
         31    1    1    2    0    0 -0.66281491985E-01  0.11660269724E+00  0.61783962251E+02  0.62231301665E+02  0.74470750000E+01 0.  1.
        -31    1    1    2    0    0  0.66281491985E-01 -0.11660269724E+00  0.58162728582E+02  0.58637700429E+02  0.74470750000E+01 0.  1.
<mgrwt>
<rscale>  0 0.14903256E+02</rscale>
<asrwt>0</asrwt>
<pdfrwt beam="1">  1        2 0.99942948E+00 0.14903256E+02</pdfrwt>
<pdfrwt beam="2">  1       -2 0.97952275E+00 0.14903256E+02</pdfrwt>
<totfact> 0.28100341E-13</totfact>
</mgrwt>
</event>
<event>
 4    1 -0.5245809E-019  0.1492365E+02  0.7818608E-02  0.1870407E+00
         -2   -1    0    0    0  501 -0.00000000000E+00  0.00000000000E+00  0.12046453579E+03  0.12046453582E+03  0.25500000000E-02 0. -1.
          2   -1    0    0  501    0  0.00000000000E+00 -0.00000000000E+00 -0.46219735292E+00  0.46220438720E+00  0.25500000000E-02 0.  1.
         31    1    1    2    0    0 -0.30553625802E+00 -0.29449405143E+00  0.61617947856E+02  0.62067789579E+02  0.74470750000E+01 0. -1.
        -31    1    1    2    0    0  0.30553625802E+00  0.29449405143E+00  0.58384390584E+02  0.58858950629E+02  0.74470750000E+01 0. -1.
<mgrwt>
<rscale>  0 0.14923648E+02</rscale>
<asrwt>0</asrwt>
<pdfrwt beam="2">  1        2 0.98173620E+00 0.14923648E+02</pdfrwt>
<pdfrwt beam="1">  1       -2 0.99990690E+00 0.14923648E+02</pdfrwt>
<totfact>-0.19451086E-14</totfact>
</mgrwt>
</event>
<event>
 4    1 -0.5245809E-019  0.1492898E+02  0.7818608E-02  0.1870243E+00
          2   -1    0    0  501    0  0.00000000000E+00  0.00000000000E+00  0.11917747302E+03  0.11917747305E+03  0.25500000000E-02 0. -1.
         -2   -1    0    0    0  501 -0.00000000000E+00 -0.00000000000E+00 -0.46752312563E+00  0.46753007978E+00  0.25500000000E-02 0.  1.
         31    1    1    2    0    0  0.23322898013E+00  0.26931761054E+00  0.62275390296E+02  0.62720093194E+02  0.74470750000E+01 0. -1.
        -31    1    1    2    0    0 -0.23322898013E+00 -0.26931761054E+00  0.56434559601E+02  0.56924909936E+02  0.74470750000E+01 0.  1.
<mgrwt>
<rscale>  0 0.14928984E+02</rscale>
<asrwt>0</asrwt>
<pdfrwt beam="1">  1        2 0.98930860E+00 0.14928984E+02</pdfrwt>
<pdfrwt beam="2">  1       -2 0.99296312E+00 0.14928984E+02</pdfrwt>
<totfact>-0.16504303E-13</totfact>
</mgrwt>
</event>
<event>
 4    1 -0.5245809E-019  0.1492753E+02  0.7818608E-02  0.1870288E+00
          2   -1    0    0  501    0  0.00000000000E+00  0.00000000000E+00  0.11845106839E+03  0.11845106841E+03  0.25500000000E-02 0. -1.
         -2   -1    0    0    0  501 -0.00000000000E+00 -0.00000000000E+00 -0.47029854440E+00  0.47030545751E+00  0.25500000000E-02 0.  1.
         31    1    1    2    0    0 -0.15530913283E+00  0.45995291057E+00  0.59904776127E+02  0.60367845800E+02  0.74470750000E+01 0. -1.
        -31    1    1    2    0    0  0.15530913283E+00 -0.45995291057E+00  0.58075993715E+02  0.58553528072E+02  0.74470750000E+01 0. -1.
<mgrwt>
<rscale>  0 0.14927529E+02</rscale>
<asrwt>0</asrwt>
<pdfrwt beam="1">  1        2 0.98332512E+00 0.14927529E+02</pdfrwt>
<pdfrwt beam="2">  1       -2 0.99881044E+00 0.14927529E+02</pdfrwt>
<totfact>-0.17444696E-13</totfact>
</mgrwt>
</event>
<event>
 4    1 -0.5245809E-019  0.1489713E+02  0.7818608E-02  0.1871224E+00
          2   -1    0    0  501    0  0.00000000000E+00  0.00000000000E+00  0.11805059181E+03  0.11805059184E+03  0.25500000000E-02 0.  1.
         -2   -1    0    0    0  501 -0.00000000000E+00 -0.00000000000E+00 -0.46997396899E+00  0.46998088688E+00  0.25500000000E-02 0. -1.
         31    1    1    2    0    0  0.79190751821E-01  0.11992404831E+00  0.58478323288E+02  0.58950775004E+02  0.74470750000E+01 0. -1.
        -31    1    1    2    0    0 -0.79190751821E-01 -0.11992404831E+00  0.59102294552E+02  0.59569797719E+02  0.74470750000E+01 0.  1.
<mgrwt>
<rscale>  0 0.14897129E+02</rscale>
<asrwt>0</asrwt>
<pdfrwt beam="1">  1        2 0.98001102E+00 0.14897129E+02</pdfrwt>
<pdfrwt beam="2">  1       -2 0.99811047E+00 0.14897129E+02</pdfrwt>
<totfact>-0.45337324E-13</totfact>
</mgrwt>
</event>
<event>
 4    1  0.5245809E-019  0.1490080E+02  0.7818608E-02  0.1871111E+00
          2   -1    0    0  501    0  0.00000000000E+00  0.00000000000E+00  0.11981645434E+03  0.11981645437E+03  0.25500000000E-02 0.  1.
         -2   -1    0    0    0  501 -0.00000000000E+00 -0.00000000000E+00 -0.46327537579E+00  0.46328239370E+00  0.25500000000E-02 0. -1.
         31    1    1    2    0    0 -0.12976325971E+00  0.25068201410E-01  0.58231636199E+02  0.58706046089E+02  0.74470750000E+01 0. -1.
        -31    1    1    2    0    0  0.12976325971E+00 -0.25068201410E-01  0.61121542769E+02  0.61573690676E+02  0.74470750000E+01 0.  1.
<mgrwt>
<rscale>  0 0.14900797E+02</rscale>
<asrwt>0</asrwt>
<pdfrwt beam="1">  1        2 0.99455702E+00 0.14900797E+02</pdfrwt>
<pdfrwt beam="2">  1       -2 0.98399680E+00 0.14900797E+02</pdfrwt>
<totfact> 0.65931325E-13</totfact>
</mgrwt>
</event>
<event>
 4    1 -0.5245809E-019  0.1499921E+02  0.7818608E-02  0.1868093E+00
         -2   -1    0    0    0  501 -0.00000000000E+00  0.00000000000E+00  0.12019009676E+03  0.12019009679E+03  0.25500000000E-02 0.  1.
          2   -1    0    0  501    0  0.00000000000E+00 -0.00000000000E+00 -0.46795556293E+00  0.46796251065E+00  0.25500000000E-02 0. -1.
         31    1    1    2    0    0 -0.54350877688E-01  0.50285236317E+00  0.54008577650E+02  0.54521933205E+02  0.74470750000E+01 0. -1.
        -31    1    1    2    0    0  0.54350877688E-01 -0.50285236317E+00  0.65713563549E+02  0.66136126096E+02  0.74470750000E+01 0.  1.
<mgrwt>
<rscale>  0 0.14999206E+02</rscale>
<asrwt>0</asrwt>
<pdfrwt beam="2">  1        2 0.99391071E+00 0.14999206E+02</pdfrwt>
<pdfrwt beam="1">  1       -2 0.99768525E+00 0.14999206E+02</pdfrwt>
<totfact>-0.87701501E-14</totfact>
</mgrwt>
</event>
<event>
 4    1  0.5245809E-019  0.1491119E+02  0.7818608E-02  0.1870791E+00
         -2   -1    0    0    0  501 -0.00000000000E+00  0.00000000000E+00  0.11836148071E+03  0.11836148073E+03  0.25500000000E-02 0. -1.
          2   -1    0    0  501    0  0.00000000000E+00 -0.00000000000E+00 -0.46962506693E+00  0.46963198995E+00  0.25500000000E-02 0.  1.
         31    1    1    2    0    0 -0.12179634119E-01 -0.15433014299E+00  0.61504034776E+02  0.61953443697E+02  0.74470750000E+01 0. -1.
        -31    1    1    2    0    0  0.12179634119E-01  0.15433014299E+00  0.56387820863E+02  0.56877669027E+02  0.74470750000E+01 0.  1.
<mgrwt>
<rscale>  0 0.14911195E+02</rscale>
<asrwt>0</asrwt>
<pdfrwt beam="2">  1        2 0.99738281E+00 0.14911195E+02</pdfrwt>
<pdfrwt beam="1">  1       -2 0.98257878E+00 0.14911195E+02</pdfrwt>
<totfact> 0.58544560E-13</totfact>
</mgrwt>
</event>
<event>
 4    1 -0.5245809E-019  0.1494837E+02  0.7818608E-02  0.1869648E+00
         -2   -1    0    0    0  501 -0.00000000000E+00  0.00000000000E+00  0.11975744758E+03  0.11975744761E+03  0.25500000000E-02 0. -1.
          2   -1    0    0  501    0  0.00000000000E+00 -0.00000000000E+00 -0.46646831966E+00  0.46647528953E+00  0.25500000000E-02 0.  1.
         31    1    1    2    0    0 -0.27281826063E-01 -0.41260579166E-01  0.64745436628E+02  0.65172332603E+02  0.74470750000E+01 0. -1.
        -31    1    1    2    0    0  0.27281826063E-01  0.41260579166E-01  0.54545542635E+02  0.55051590296E+02  0.74470750000E+01 0.  1.
<mgrwt>
<rscale>  0 0.14948375E+02</rscale>
<asrwt>0</asrwt>
<pdfrwt beam="2">  1        2 0.99075031E+00 0.14948375E+02</pdfrwt>
<pdfrwt beam="1">  1       -2 0.99409551E+00 0.14948375E+02</pdfrwt>
<totfact>-0.16430143E-13</totfact>
</mgrwt>
</event>
<event>
 4    1  0.5245809E-019  0.1493113E+02  0.7818608E-02  0.1870177E+00
          2   -1    0    0  501    0  0.00000000000E+00  0.00000000000E+00  0.11987833906E+03  0.11987833909E+03  0.25500000000E-02 0.  1.
         -2   -1    0    0    0  501 -0.00000000000E+00 -0.00000000000E+00 -0.46492362999E+00  0.46493062302E+00  0.25500000000E-02 0. -1.
         31    1    1    2    0    0 -0.10539971129E+00 -0.67138378893E-01  0.55595752068E+02  0.56092443259E+02  0.74470750000E+01 0. -1.
        -31    1    1    2    0    0  0.10539971129E+00  0.67138378893E-01  0.63817663365E+02  0.64250826455E+02  0.74470750000E+01 0.  1.
<mgrwt>
<rscale>  0 0.14931135E+02</rscale>
<asrwt>0</asrwt>
<pdfrwt beam="1">  1        2 0.99508235E+00 0.14931135E+02</pdfrwt>
<pdfrwt beam="2">  1       -2 0.98748607E+00 0.14931135E+02</pdfrwt>
<totfact> 0.19614745E-13</totfact>
</mgrwt>
</event>
<event>
 4    1 -0.5245809E-019  0.1492870E+02  0.7818608E-02  0.1870252E+00
          2   -1    0    0  501    0  0.00000000000E+00  0.00000000000E+00  0.11908181047E+03  0.11908181050E+03  0.25500000000E-02 0.  1.
         -2   -1    0    0    0  501 -0.00000000000E+00 -0.00000000000E+00 -0.46788108779E+00  0.46788803662E+00  0.25500000000E-02 0. -1.
         31    1    1    2    0    0 -0.18364621362E-01  0.32416088859E+00  0.56182797062E+02  0.56675135900E+02  0.74470750000E+01 0. -1.
        -31    1    1    2    0    0  0.18364621362E-01 -0.32416088859E+00  0.62431132318E+02  0.62874562632E+02  0.74470750000E+01 0.  1.
<mgrwt>
<rscale>  0 0.14928703E+02</rscale>
<asrwt>0</asrwt>
<pdfrwt beam="1">  1        2 0.98852055E+00 0.14928703E+02</pdfrwt>
<pdfrwt beam="2">  1       -2 0.99371728E+00 0.14928703E+02</pdfrwt>
<totfact>-0.20023597E-13</totfact>
</mgrwt>
</event>
<event>
 4    1  0.5245809E-019  0.1492593E+02  0.7818608E-02  0.1870337E+00
          2   -1    0    0  501    0  0.00000000000E+00  0.00000000000E+00  0.12014106991E+03  0.12014106993E+03  0.25500000000E-02 0.  1.
         -2   -1    0    0    0  501 -0.00000000000E+00 -0.00000000000E+00 -0.46358376670E+00  0.46359077994E+00  0.25500000000E-02 0. -1.
         31    1    1    2    0    0 -0.11355316454E+00 -0.25042743931E+00  0.56593153522E+02  0.57081691985E+02  0.74470750000E+01 0. -1.
        -31    1    1    2    0    0  0.11355316454E+00  0.25042743931E+00  0.63084332619E+02  0.63522968730E+02  0.74470750000E+01 0.  1.
<mgrwt>
<rscale>  0 0.14925934E+02</rscale>
<asrwt>0</asrwt>
<pdfrwt beam="1">  1        2 0.99724372E+00 0.14925934E+02</pdfrwt>
<pdfrwt beam="2">  1       -2 0.98465954E+00 0.14925934E+02</pdfrwt>
<totfact> 0.37092213E-13</totfact>
</mgrwt>
</event>
<event>
 4    1 -0.5245809E-019  0.1494441E+02  0.7818608E-02  0.1869769E+00
         -2   -1    0    0    0  501 -0.00000000000E+00  0.00000000000E+00  0.11960437413E+03  0.11960437416E+03  0.25500000000E-02 0. -1.
          2   -1    0    0  501    0  0.00000000000E+00 -0.00000000000E+00 -0.46681782278E+00  0.46682478744E+00  0.25500000000E-02 0.  1.
         31    1    1    2    0    0 -0.35827390641E+00 -0.60591417410E-01  0.55608845663E+02  0.56106458395E+02  0.74470750000E+01 0.  1.
        -31    1    1    2    0    0  0.35827390641E+00  0.60591417410E-01  0.63528710645E+02  0.63964740551E+02  0.74470750000E+01 0. -1.
<mgrwt>
<rscale>  0 0.14944413E+02</rscale>
<asrwt>0</asrwt>
<pdfrwt beam="2">  1        2 0.99148481E+00 0.14944413E+02</pdfrwt>
<pdfrwt beam="1">  1       -2 0.99283268E+00 0.14944413E+02</pdfrwt>
<totfact>-0.13213361E-13</totfact>
</mgrwt>
</event>
<event>
 4    1 -0.5245809E-019  0.1493583E+02  0.7818608E-02  0.1870033E+00
         -2   -1    0    0    0  501 -0.00000000000E+00  0.00000000000E+00  0.11983206110E+03  0.11983206112E+03  0.25500000000E-02 0.  1.
          2   -1    0    0  501    0  0.00000000000E+00 -0.00000000000E+00 -0.46539545317E+00  0.46540243911E+00  0.25500000000E-02 0. -1.
         31    1    1    2    0    0  0.59949645152E-01 -0.30908474380E+00  0.63388873471E+02  0.63825600924E+02  0.74470750000E+01 0.  1.
        -31    1    1    2    0    0 -0.59949645152E-01  0.30908474380E+00  0.55977792173E+02  0.56471862639E+02  0.74470750000E+01 0. -1.
<mgrwt>
<rscale>  0 0.14935825E+02</rscale>
<asrwt>0</asrwt>
<pdfrwt beam="2">  1        2 0.98848285E+00 0.14935825E+02</pdfrwt>
<pdfrwt beam="1">  1       -2 0.99470360E+00 0.14935825E+02</pdfrwt>
<totfact>-0.21077440E-13</totfact>
</mgrwt>
</event>
<event>
 4    1 -0.5245809E-019  0.1493255E+02  0.7818608E-02  0.1870134E+00
         -2   -1    0    0    0  501 -0.00000000000E+00  0.00000000000E+00  0.12002017675E+03  0.12002017678E+03  0.25500000000E-02 0.  1.
          2   -1    0    0  501    0  0.00000000000E+00 -0.00000000000E+00 -0.46446197045E+00  0.46446897043E+00  0.25500000000E-02 0. -1.
         31    1    1    2    0    0 -0.38961811112E+00 -0.15937590164E+00  0.62442962996E+02  0.62886880641E+02  0.74470750000E+01 0.  1.
        -31    1    1    2    0    0  0.38961811112E+00  0.15937590164E+00  0.57112751786E+02  0.57597765109E+02  0.74470750000E+01 0. -1.
<mgrwt>
<rscale>  0 0.14932546E+02</rscale>
<asrwt>0</asrwt>
<pdfrwt beam="2">  1        2 0.98651382E+00 0.14932546E+02</pdfrwt>
<pdfrwt beam="1">  1       -2 0.99625135E+00 0.14932546E+02</pdfrwt>
<totfact>-0.24974431E-13</totfact>
</mgrwt>
</event>
<event>
 4    1  0.5245809E-019  0.1491834E+02  0.7818608E-02  0.1870571E+00
         -2   -1    0    0    0  501 -0.00000000000E+00  0.00000000000E+00  0.11851343165E+03  0.11851343168E+03  0.25500000000E-02 0.  1.
          2   -1    0    0  501    0  0.00000000000E+00 -0.00000000000E+00 -0.46947254756E+00  0.46947947283E+00  0.25500000000E-02 0. -1.
         31    1    1    2    0    0  0.13503392787E+00 -0.22526558725E+00  0.61682913623E+02  0.62131390921E+02  0.74470750000E+01 0.  1.
        -31    1    1    2    0    0 -0.13503392787E+00  0.22526558725E+00  0.56361045481E+02  0.56851520231E+02  0.74470750000E+01 0. -1.
<mgrwt>
<rscale>  0 0.14918340E+02</rscale>
<asrwt>0</asrwt>
<pdfrwt beam="2">  1        2 0.99706523E+00 0.14918340E+02</pdfrwt>
<pdfrwt beam="1">  1       -2 0.98383396E+00 0.14918340E+02</pdfrwt>
<totfact> 0.47799969E-13</totfact>
</mgrwt>
</event>
<event>
 4    1 -0.5245809E-019  0.1493752E+02  0.7818608E-02  0.1869981E+00
          2   -1    0    0  501    0  0.00000000000E+00  0.00000000000E+00  0.11898945549E+03  0.11898945552E+03  0.25500000000E-02 0.  1.
         -2   -1    0    0    0  501 -0.00000000000E+00 -0.00000000000E+00 -0.46879737400E+00  0.46880430925E+00  0.25500000000E-02 0. -1.
         31    1    1    2    0    0  0.56040906419E+00 -0.49762359031E-01  0.58596057600E+02  0.59070072176E+02  0.74470750000E+01 0. -1.
        -31    1    1    2    0    0 -0.56040906419E+00  0.49762359031E-01  0.59924600517E+02  0.60388187651E+02  0.74470750000E+01 0. -1.
<mgrwt>
<rscale>  0 0.14937518E+02</rscale>
<asrwt>0</asrwt>
<pdfrwt beam="1">  1        2 0.98776447E+00 0.14937518E+02</pdfrwt>
<pdfrwt beam="2">  1       -2 0.99565266E+00 0.14937518E+02</pdfrwt>
<totfact>-0.22292646E-13</totfact>
</mgrwt>
</event>
<event>
 4    1 -0.5245809E-019  0.1499472E+02  0.7818608E-02  0.1868230E+00
         -2   -1    0    0    0  501 -0.00000000000E+00  0.00000000000E+00  0.12008796295E+03  0.12008796298E+03  0.25500000000E-02 0. -1.
          2   -1    0    0  501    0  0.00000000000E+00 -0.00000000000E+00 -0.46807358945E+00  0.46808053542E+00  0.25500000000E-02 0.  1.
         31    1    1    2    0    0 -0.11009366653E+00 -0.69658818393E+00  0.55756827684E+02  0.56256378439E+02  0.74470750000E+01 0.  1.
        -31    1    1    2    0    0  0.11009366653E+00  0.69658818393E+00  0.63863061678E+02  0.64299665075E+02  0.74470750000E+01 0.  1.
<mgrwt>
<rscale>  0 0.14994722E+02</rscale>
<asrwt>0</asrwt>
<pdfrwt beam="2">  1        2 0.99415713E+00 0.14994722E+02</pdfrwt>
<pdfrwt beam="1">  1       -2 0.99684172E+00 0.14994722E+02</pdfrwt>
<totfact>-0.10672631E-13</totfact>
</mgrwt>
</event>
<event>
 4    1 -0.5245809E-019  0.1494243E+02  0.7818608E-02  0.1869830E+00
          2   -1    0    0  501    0  0.00000000000E+00  0.00000000000E+00  0.11902937003E+03  0.11902937006E+03  0.25500000000E-02 0. -1.
         -2   -1    0    0    0  501 -0.00000000000E+00 -0.00000000000E+00 -0.46894821360E+00  0.46895514662E+00  0.25500000000E-02 0.  1.
         31    1    1    2    0    0  0.57757063171E+00  0.73906050382E-02  0.57979389757E+02  0.58458551172E+02  0.74470750000E+01 0.  1.
        -31    1    1    2    0    0 -0.57757063171E+00 -0.73906050382E-02  0.60581032059E+02  0.61039774031E+02  0.74470750000E+01 0.  1.
<mgrwt>
<rscale>  0 0.14942426E+02</rscale>
<asrwt>0</asrwt>
<pdfrwt beam="1">  1        2 0.98809576E+00 0.14942426E+02</pdfrwt>
<pdfrwt beam="2">  1       -2 0.99597307E+00 0.14942426E+02</pdfrwt>
<totfact>-0.20752110E-13</totfact>
</mgrwt>
</event>
<event>
 4    1  0.5245809E-019  0.1492606E+02  0.7818608E-02  0.1870333E+00
          2   -1    0    0  501    0  0.00000000000E+00  0.00000000000E+00  0.11982545493E+03  0.11982545496E+03  0.25500000000E-02 0. -1.
         -2   -1    0    0    0  501 -0.00000000000E+00 -0.00000000000E+00 -0.46481242192E+00  0.46481941663E+00  0.25500000000E-02 0.  1.
         31    1    1    2    0    0 -0.35682946096E+00 -0.24838636817E+00  0.57899407957E+02  0.58377987212E+02  0.74470750000E+01 0.  1.
        -31    1    1    2    0    0  0.35682946096E+00  0.24838636817E+00  0.61461234553E+02  0.61912287164E+02  0.74470750000E+01 0.  1.
<mgrwt>
<rscale>  0 0.14926055E+02</rscale>
<asrwt>0</asrwt>
<pdfrwt beam="1">  1        2 0.99464415E+00 0.14926055E+02</pdfrwt>
<pdfrwt beam="2">  1       -2 0.98724910E+00 0.14926055E+02</pdfrwt>
<totfact> 0.22855958E-13</totfact>
</mgrwt>
</event>
<event>
 4    1  0.5245809E-019  0.1492753E+02  0.7818608E-02  0.1870288E+00
          2   -1    0    0  501    0  0.00000000000E+00  0.00000000000E+00  0.12020470092E+03  0.12020470095E+03  0.25500000000E-02 0.  1.
         -2   -1    0    0    0  501 -0.00000000000E+00 -0.00000000000E+00 -0.46343742230E+00  0.46344443776E+00  0.25500000000E-02 0. -1.
         31    1    1    2    0    0 -0.20982808186E+00 -0.44027907098E+00  0.59023506712E+02  0.59493454633E+02  0.74470750000E+01 0. -1.
        -31    1    1    2    0    0  0.20982808186E+00  0.44027907098E+00  0.60717756785E+02  0.61174690751E+02  0.74470750000E+01 0.  1.
<mgrwt>
<rscale>  0 0.14927529E+02</rscale>
<asrwt>0</asrwt>
<pdfrwt beam="1">  1        2 0.99776865E+00 0.14927529E+02</pdfrwt>
<pdfrwt beam="2">  1       -2 0.98435190E+00 0.14927529E+02</pdfrwt>
<totfact> 0.34495260E-13</totfact>
</mgrwt>
</event>
<event>
 4    1 -0.5245809E-019  0.1498345E+02  0.7818608E-02  0.1868574E+00
          2   -1    0    0  501    0  0.00000000000E+00  0.00000000000E+00  0.11965665176E+03  0.11965665179E+03  0.25500000000E-02 0. -1.
         -2   -1    0    0    0  501 -0.00000000000E+00 -0.00000000000E+00 -0.46905506120E+00  0.46906199263E+00  0.25500000000E-02 0.  1.
         31    1    1    2    0    0  0.65181574030E+00  0.49004909070E+00  0.59231854384E+02  0.59703739512E+02  0.74470750000E+01 0. -1.
        -31    1    1    2    0    0 -0.65181574030E+00 -0.49004909070E+00  0.59955742317E+02  0.60421974271E+02  0.74470750000E+01 0.  1.
<mgrwt>
<rscale>  0 0.14983454E+02</rscale>
<asrwt>0</asrwt>
<pdfrwt beam="1">  1        2 0.99328345E+00 0.14983454E+02</pdfrwt>
<pdfrwt beam="2">  1       -2 0.99621960E+00 0.14983454E+02</pdfrwt>
<totfact>-0.12620570E-13</totfact>
</mgrwt>
</event>
<event>
 4    1 -0.5245809E-019  0.1498603E+02  0.7818608E-02  0.1868495E+00
         -2   -1    0    0    0  501 -0.00000000000E+00  0.00000000000E+00  0.12022952432E+03  0.12022952435E+03  0.25500000000E-02 0.  1.
          2   -1    0    0  501    0  0.00000000000E+00 -0.00000000000E+00 -0.46698027620E+00  0.46698723844E+00  0.25500000000E-02 0. -1.
         31    1    1    2    0    0 -0.44859052113E+00 -0.35031633197E-01  0.54278998330E+02  0.54789333328E+02  0.74470750000E+01 0. -1.
        -31    1    1    2    0    0  0.44859052113E+00  0.35031633197E-01  0.65483545718E+02  0.65907178263E+02  0.74470750000E+01 0.  1.
<mgrwt>
<rscale>  0 0.14986025E+02</rscale>
<asrwt>0</asrwt>
<pdfrwt beam="2">  1        2 0.99184856E+00 0.14986025E+02</pdfrwt>
<pdfrwt beam="1">  1       -2 0.99800320E+00 0.14986025E+02</pdfrwt>
<totfact>-0.90875329E-14</totfact>
</mgrwt>
</event>
<event>
 4    1 -0.5245809E-019  0.1494183E+02  0.7818608E-02  0.1869849E+00
         -2   -1    0    0    0  501 -0.00000000000E+00  0.00000000000E+00  0.11971213536E+03  0.11971213538E+03  0.25500000000E-02 0. -1.
          2   -1    0    0  501    0  0.00000000000E+00 -0.00000000000E+00 -0.46623661550E+00  0.46624358884E+00  0.25500000000E-02 0.  1.
         31    1    1    2    0    0  0.35556213033E+00  0.45289340126E+00  0.58373328945E+02  0.58849265034E+02  0.74470750000E+01 0.  1.
        -31    1    1    2    0    0 -0.35556213033E+00 -0.45289340126E+00  0.60872569796E+02  0.61329113938E+02  0.74470750000E+01 0. -1.
<mgrwt>
<rscale>  0 0.14941834E+02</rscale>
<asrwt>0</asrwt>
<pdfrwt beam="2">  1        2 0.99025865E+00 0.14941834E+02</pdfrwt>
<pdfrwt beam="1">  1       -2 0.99371892E+00 0.14941834E+02</pdfrwt>
<totfact>-0.16677129E-13</totfact>
</mgrwt>
</event>
<event>
 4    1  0.5245809E-019  0.1494070E+02  0.7818608E-02  0.1869883E+00
         -2   -1    0    0    0  501 -0.00000000000E+00  0.00000000000E+00  0.11886296993E+03  0.11886296995E+03  0.25500000000E-02 0.  1.
          2   -1    0    0  501    0  0.00000000000E+00 -0.00000000000E+00 -0.46949639913E+00  0.46950332406E+00  0.25500000000E-02 0. -1.
         31    1    1    2    0    0 -0.10307601786E+00  0.57951240718E+00  0.59417768861E+02  0.59885529485E+02  0.74470750000E+01 0.  1.
        -31    1    1    2    0    0  0.10307601786E+00 -0.57951240718E+00  0.58975704666E+02  0.59446943792E+02  0.74470750000E+01 0. -1.
<mgrwt>
<rscale>  0 0.14940703E+02</rscale>
<asrwt>0</asrwt>
<pdfrwt beam="2">  1        2 0.99712725E+00 0.14940703E+02</pdfrwt>
<pdfrwt beam="1">  1       -2 0.98672438E+00 0.14940703E+02</pdfrwt>
<totfact> 0.19686500E-13</totfact>
</mgrwt>
</event>
<event>
 4    1 -0.5245809E-019  0.1490297E+02  0.7818608E-02  0.1871044E+00
          2   -1    0    0  501    0  0.00000000000E+00  0.00000000000E+00  0.11889555526E+03  0.11889555529E+03  0.25500000000E-02 0. -1.
         -2   -1    0    0    0  501 -0.00000000000E+00 -0.00000000000E+00 -0.46699969464E+00  0.46700665658E+00  0.25500000000E-02 0.  1.
         31    1    1    2    0    0 -0.21701526599E+00  0.10712513678E+00  0.59889518360E+02  0.60351237824E+02  0.74470750000E+01 0. -1.
        -31    1    1    2    0    0  0.21701526599E+00 -0.10712513678E+00  0.58539037206E+02  0.59011324120E+02  0.74470750000E+01 0.  1.
<mgrwt>
<rscale>  0 0.14902967E+02</rscale>
<asrwt>0</asrwt>
<pdfrwt beam="1">  1        2 0.98697318E+00 0.14902967E+02</pdfrwt>
<pdfrwt beam="2">  1       -2 0.99184659E+00 0.14902967E+02</pdfrwt>
<totfact>-0.15909069E-13</totfact>
</mgrwt>
</event>
<event>
 4    1  0.5245809E-019  0.1492581E+02  0.7818608E-02  0.1870341E+00
         -2   -1    0    0    0  501 -0.00000000000E+00  0.00000000000E+00  0.11867569007E+03  0.11867569010E+03  0.25500000000E-02 0. -1.
          2   -1    0    0  501    0  0.00000000000E+00 -0.00000000000E+00 -0.46930034468E+00  0.46930727249E+00  0.25500000000E-02 0.  1.
         31    1    1    2    0    0 -0.46146551954E+00 -0.40613620513E-01  0.60271767034E+02  0.60731865008E+02  0.74470750000E+01 0.  1.
        -31    1    1    2    0    0  0.46146551954E+00  0.40613620513E-01  0.57934622696E+02  0.58413132366E+02  0.74470750000E+01 0.  1.
<mgrwt>
<rscale>  0 0.14925811E+02</rscale>
<asrwt>0</asrwt>
<pdfrwt beam="2">  1        2 0.99670633E+00 0.14925811E+02</pdfrwt>
<pdfrwt beam="1">  1       -2 0.98517420E+00 0.14925811E+02</pdfrwt>
<totfact> 0.36213672E-13</totfact>
</mgrwt>
</event>
<event>
 4    1 -0.5245809E-019  0.1493581E+02  0.7818608E-02  0.1870034E+00
         -2   -1    0    0    0  501 -0.00000000000E+00  0.00000000000E+00  0.11973916155E+03  0.11973916158E+03  0.25500000000E-02 0.  1.
          2   -1    0    0  501    0  0.00000000000E+00 -0.00000000000E+00 -0.46575549142E+00  0.46576247197E+00  0.25500000000E-02 0. -1.
         31    1    1    2    0    0 -0.45390782194E+00  0.32344880259E+00  0.59604797728E+02  0.60070803971E+02  0.74470750000E+01 0. -1.
        -31    1    1    2    0    0  0.45390782194E+00 -0.32344880259E+00  0.59668608331E+02  0.60134120079E+02  0.74470750000E+01 0.  1.
<mgrwt>
<rscale>  0 0.14935808E+02</rscale>
<asrwt>0</asrwt>
<pdfrwt beam="2">  1        2 0.98924161E+00 0.14935808E+02</pdfrwt>
<pdfrwt beam="1">  1       -2 0.99393842E+00 0.14935808E+02</pdfrwt>
<totfact>-0.18792388E-13</totfact>
</mgrwt>
</event>
<event>
 4    1  0.5245809E-019  0.1490062E+02  0.7818608E-02  0.1871116E+00
         -2   -1    0    0    0  501 -0.00000000000E+00  0.00000000000E+00  0.11809429090E+03  0.11809429093E+03  0.25500000000E-02 0.  1.
          2   -1    0    0  501    0  0.00000000000E+00 -0.00000000000E+00 -0.47002010204E+00  0.47002701924E+00  0.25500000000E-02 0. -1.
         31    1    1    2    0    0  0.17999856224E+00 -0.12520146513E+00  0.58732005310E+02  0.59202664202E+02  0.74470750000E+01 0.  1.
        -31    1    1    2    0    0 -0.17999856224E+00  0.12520146513E+00  0.58892265487E+02  0.59361653744E+02  0.74470750000E+01 0.  1.
<mgrwt>
<rscale>  0 0.14900618E+02</rscale>
<asrwt>0</asrwt>
<pdfrwt beam="2">  1        2 0.99820952E+00 0.14900618E+02</pdfrwt>
<pdfrwt beam="1">  1       -2 0.98037274E+00 0.14900618E+02</pdfrwt>
<totfact> 0.66789303E-13</totfact>
</mgrwt>
</event>
<event>
 4    1  0.5245809E-019  0.1493044E+02  0.7818608E-02  0.1870199E+00
         -2   -1    0    0    0  501 -0.00000000000E+00  0.00000000000E+00  0.11856189570E+03  0.11856189572E+03  0.25500000000E-02 0.  1.
          2   -1    0    0  501    0  0.00000000000E+00 -0.00000000000E+00 -0.47004220077E+00  0.47004911765E+00  0.25500000000E-02 0. -1.
         31    1    1    2    0    0 -0.91318081565E-01  0.25433316804E+00  0.62589467555E+02  0.63031527026E+02  0.74470750000E+01 0.  1.
        -31    1    1    2    0    0  0.91318081565E-01 -0.25433316804E+00  0.55502385941E+02  0.56000417816E+02  0.74470750000E+01 0. -1.
<mgrwt>
<rscale>  0 0.14930440E+02</rscale>
<asrwt>0</asrwt>
<pdfrwt beam="2">  1        2 0.99827187E+00 0.14930440E+02</pdfrwt>
<pdfrwt beam="1">  1       -2 0.98423940E+00 0.14930440E+02</pdfrwt>
<totfact> 0.29070090E-13</totfact>
</mgrwt>
</event>
<event>
 4    1 -0.5245809E-019  0.1498570E+02  0.7818608E-02  0.1868505E+00
          2   -1    0    0  501    0  0.00000000000E+00  0.00000000000E+00  0.11994034142E+03  0.11994034145E+03  0.25500000000E-02 0. -1.
         -2   -1    0    0    0  501 -0.00000000000E+00 -0.00000000000E+00 -0.46808589669E+00  0.46809284248E+00  0.25500000000E-02 0.  1.
         31    1    1    2    0    0 -0.24525858973E+00 -0.50681086622E+00  0.64602823348E+02  0.65033074044E+02  0.74470750000E+01 0. -1.
        -31    1    1    2    0    0  0.24525858973E+00  0.50681086622E+00  0.54869432179E+02  0.55375360249E+02  0.74470750000E+01 0. -1.
<mgrwt>
<rscale>  0 0.14985700E+02</rscale>
<asrwt>0</asrwt>
<pdfrwt beam="1">  1        2 0.99562118E+00 0.14985700E+02</pdfrwt>
<pdfrwt beam="2">  1       -2 0.99417842E+00 0.14985700E+02</pdfrwt>
<totfact>-0.10985519E-13</totfact>
</mgrwt>
</event>
<event>
 4    1 -0.5245809E-019  0.1494463E+02  0.7818608E-02  0.1869763E+00
         -2   -1    0    0    0  501 -0.00000000000E+00  0.00000000000E+00  0.11985026626E+03  0.11985026628E+03  0.25500000000E-02 0. -1.
          2   -1    0    0  501    0  0.00000000000E+00 -0.00000000000E+00 -0.46587366184E+00  0.46588064061E+00  0.25500000000E-02 0.  1.
         31    1    1    2    0    0  0.37064932518E+00  0.39881816323E+00  0.57413082589E+02  0.57896609704E+02  0.74470750000E+01 0. -1.
        -31    1    1    2    0    0 -0.37064932518E+00 -0.39881816323E+00  0.61971310005E+02  0.62419537219E+02  0.74470750000E+01 0.  1.
<mgrwt>
<rscale>  0 0.14944632E+02</rscale>
<asrwt>0</asrwt>
<pdfrwt beam="2">  1        2 0.98949518E+00 0.14944632E+02</pdfrwt>
<pdfrwt beam="1">  1       -2 0.99485808E+00 0.14944632E+02</pdfrwt>
<totfact>-0.18814755E-13</totfact>
</mgrwt>
</event>
<event>
 4    1 -0.5245809E-019  0.1495084E+02  0.7818608E-02  0.1869572E+00
          2   -1    0    0  501    0  0.00000000000E+00  0.00000000000E+00  0.11926208049E+03  0.11926208052E+03  0.25500000000E-02 0. -1.
         -2   -1    0    0    0  501 -0.00000000000E+00 -0.00000000000E+00 -0.46856068909E+00  0.46856762784E+00  0.25500000000E-02 0.  1.
         31    1    1    2    0    0  0.38024928783E+00 -0.49972627564E+00  0.58040124179E+02  0.58519306700E+02  0.74470750000E+01 0. -1.
        -31    1    1    2    0    0 -0.38024928783E+00  0.49972627564E+00  0.60753395624E+02  0.61211341447E+02  0.74470750000E+01 0. -1.
<mgrwt>
<rscale>  0 0.14950845E+02</rscale>
<asrwt>0</asrwt>
<pdfrwt beam="1">  1        2 0.99001677E+00 0.14950845E+02</pdfrwt>
<pdfrwt beam="2">  1       -2 0.99516088E+00 0.14950845E+02</pdfrwt>
<totfact>-0.17746878E-13</totfact>
</mgrwt>
</event>
<event>
 4    1 -0.5245809E-019  0.1490439E+02  0.7818608E-02  0.1871000E+00
         -2   -1    0    0    0  501 -0.00000000000E+00  0.00000000000E+00  0.12020559491E+03  0.12020559494E+03  0.25500000000E-02 0.  1.
          2   -1    0    0  501    0  0.00000000000E+00 -0.00000000000E+00 -0.46199851783E+00  0.46200555514E+00  0.25500000000E-02 0. -1.
         31    1    1    2    0    0 -0.45725815410E-01 -0.13700491140E+00  0.57965415332E+02  0.58442015381E+02  0.74470750000E+01 0. -1.
        -31    1    1    2    0    0  0.45725815410E-01  0.13700491140E+00  0.61778181059E+02  0.62225585109E+02  0.74470750000E+01 0.  1.
<mgrwt>
<rscale>  0 0.14904393E+02</rscale>
<asrwt>0</asrwt>
<pdfrwt beam="2">  1        2 0.98130741E+00 0.14904393E+02</pdfrwt>
<pdfrwt beam="1">  1       -2 0.99776415E+00 0.14904393E+02</pdfrwt>
<totfact>-0.41808743E-13</totfact>
</mgrwt>
</event>
<event>
 4    1 -0.5245809E-019  0.1491755E+02  0.7818608E-02  0.1870595E+00
         -2   -1    0    0    0  501 -0.00000000000E+00  0.00000000000E+00  0.11998921276E+03  0.11998921279E+03  0.25500000000E-02 0.  1.
          2   -1    0    0  501    0  0.00000000000E+00 -0.00000000000E+00 -0.46364934683E+00  0.46365635908E+00  0.25500000000E-02 0. -1.
         31    1    1    2    0    0  0.38504479672E+00 -0.10602995146E+00  0.58776619537E+02  0.59247864368E+02  0.74470750000E+01 0. -1.
        -31    1    1    2    0    0 -0.38504479672E+00  0.10602995146E+00  0.60748943880E+02  0.61205004783E+02  0.74470750000E+01 0. -1.
<mgrwt>
<rscale>  0 0.14917553E+02</rscale>
<asrwt>0</asrwt>
<pdfrwt beam="2">  1        2 0.98479350E+00 0.14917553E+02</pdfrwt>
<pdfrwt beam="1">  1       -2 0.99598860E+00 0.14917553E+02</pdfrwt>
<totfact>-0.33729938E-13</totfact>
</mgrwt>
</event>
<event>
 4    1  0.5245809E-019  0.1494086E+02  0.7818608E-02  0.1869879E+00
         -2   -1    0    0    0  501 -0.00000000000E+00  0.00000000000E+00  0.11872763918E+03  0.11872763921E+03  0.25500000000E-02 0.  1.
          2   -1    0    0  501    0  0.00000000000E+00 -0.00000000000E+00 -0.47004117694E+00  0.47004809383E+00  0.25500000000E-02 0. -1.
         31    1    1    2    0    0  0.52502855129E+00 -0.54178011205E-01  0.61236203890E+02  0.61689627841E+02  0.74470750000E+01 0.  1.
        -31    1    1    2    0    0 -0.52502855129E+00  0.54178011205E-01  0.57021394112E+02  0.57508059460E+02  0.74470750000E+01 0. -1.
<mgrwt>
<rscale>  0 0.14940856E+02</rscale>
<asrwt>0</asrwt>
<pdfrwt beam="2">  1        2 0.99827521E+00 0.14940856E+02</pdfrwt>
<pdfrwt beam="1">  1       -2 0.98560988E+00 0.14940856E+02</pdfrwt>
<totfact> 0.19754835E-13</totfact>
</mgrwt>
</event>
<event>
 4    1 -0.5245809E-019  0.1492935E+02  0.7818608E-02  0.1870232E+00
         -2   -1    0    0    0  501 -0.00000000000E+00  0.00000000000E+00  0.11991558773E+03  0.11991558776E+03  0.25500000000E-02 0. -1.
          2   -1    0    0  501    0  0.00000000000E+00 -0.00000000000E+00 -0.46466788552E+00  0.46467488240E+00  0.25500000000E-02 0.  1.
         31    1    1    2    0    0  0.46408111121E+00  0.20716915514E+00  0.60243586215E+02  0.60704257647E+02  0.74470750000E+01 0.  1.
        -31    1    1    2    0    0 -0.46408111121E+00 -0.20716915514E+00  0.59207333632E+02  0.59676004995E+02  0.74470750000E+01 0. -1.
<mgrwt>
<rscale>  0 0.14929346E+02</rscale>
<asrwt>0</asrwt>
<pdfrwt beam="2">  1        2 0.98694617E+00 0.14929346E+02</pdfrwt>
<pdfrwt beam="1">  1       -2 0.99538824E+00 0.14929346E+02</pdfrwt>
<totfact>-0.25375025E-13</totfact>
</mgrwt>
</event>
<event>
 4    1  0.5245809E-019  0.1497010E+02  0.7818608E-02  0.1868982E+00
         -2   -1    0    0    0  501 -0.00000000000E+00  0.00000000000E+00  0.11918344630E+03  0.11918344633E+03  0.25500000000E-02 0. -1.
          2   -1    0    0  501    0  0.00000000000E+00 -0.00000000000E+00 -0.47007830570E+00  0.47008522205E+00  0.25500000000E-02 0.  1.
         31    1    1    2    0    0  0.18581138131E+00 -0.71486874543E+00  0.60528082204E+02  0.60988959858E+02  0.74470750000E+01 0.  1.
        -31    1    1    2    0    0 -0.18581138131E+00  0.71486874543E+00  0.58185285792E+02  0.58664571694E+02  0.74470750000E+01 0. -1.
<mgrwt>
<rscale>  0 0.14970099E+02</rscale>
<asrwt>0</asrwt>
<pdfrwt beam="2">  1        2 0.99836881E+00 0.14970099E+02</pdfrwt>
<pdfrwt beam="1">  1       -2 0.98937912E+00 0.14970099E+02</pdfrwt>
<totfact> 0.21694294E-14</totfact>
</mgrwt>
</event>
<event>
 4    1 -0.5245809E-019  0.1500166E+02  0.7818608E-02  0.1868018E+00
         -2   -1    0    0    0  501 -0.00000000000E+00  0.00000000000E+00  0.11981971125E+03  0.11981971127E+03  0.25500000000E-02 0. -1.
          2   -1    0    0  501    0  0.00000000000E+00 -0.00000000000E+00 -0.46955593213E+00  0.46956285618E+00  0.25500000000E-02 0.  1.
         31    1    1    2    0    0 -0.62402888001E+00 -0.64333226565E+00  0.59804314722E+02  0.60272865154E+02  0.74470750000E+01 0. -1.
        -31    1    1    2    0    0  0.62402888001E+00  0.64333226565E+00  0.59545840593E+02  0.60016408977E+02  0.74470750000E+01 0.  1.
<mgrwt>
<rscale>  0 0.15001663E+02</rscale>
<asrwt>0</asrwt>
<pdfrwt beam="2">  1        2 0.99728453E+00 0.15001663E+02</pdfrwt>
<pdfrwt beam="1">  1       -2 0.99463588E+00 0.15001663E+02</pdfrwt>
<totfact>-0.82372961E-14</totfact>
</mgrwt>
</event>
<event>
 4    1 -0.5245809E-019  0.1494032E+02  0.7818608E-02  0.1869895E+00
          2   -1    0    0  501    0  0.00000000000E+00  0.00000000000E+00  0.11893561572E+03  0.11893561575E+03  0.25500000000E-02 0. -1.
         -2   -1    0    0    0  501 -0.00000000000E+00 -0.00000000000E+00 -0.46918568955E+00  0.46919261905E+00  0.25500000000E-02 0.  1.
         31    1    1    2    0    0  0.41805029926E+00 -0.67966919602E-01  0.55986874292E+02  0.56481575797E+02  0.74470750000E+01 0. -1.
        -31    1    1    2    0    0 -0.41805029926E+00  0.67966919602E-01  0.62479555739E+02  0.62923232569E+02  0.74470750000E+01 0. -1.
<mgrwt>
<rscale>  0 0.14940322E+02</rscale>
<asrwt>0</asrwt>
<pdfrwt beam="1">  1        2 0.98732250E+00 0.14940322E+02</pdfrwt>
<pdfrwt beam="2">  1       -2 0.99647236E+00 0.14940322E+02</pdfrwt>
<totfact>-0.21554634E-13</totfact>
</mgrwt>
</event>
<event>
 4    1 -0.5245809E-019  0.1490753E+02  0.7818608E-02  0.1870904E+00
          2   -1    0    0  501    0  0.00000000000E+00  0.00000000000E+00  0.11859930848E+03  0.11859930850E+03  0.25500000000E-02 0.  1.
         -2   -1    0    0    0  501 -0.00000000000E+00 -0.00000000000E+00 -0.46845275385E+00  0.46845969420E+00  0.25500000000E-02 0. -1.
         31    1    1    2    0    0  0.48022739447E-01  0.28409935358E+00  0.58035037530E+02  0.58511601634E+02  0.74470750000E+01 0. -1.
        -31    1    1    2    0    0 -0.48022739447E-01 -0.28409935358E+00  0.60095818192E+02  0.60556166563E+02  0.74470750000E+01 0.  1.
<mgrwt>
<rscale>  0 0.14907527E+02</rscale>
<asrwt>0</asrwt>
<pdfrwt beam="1">  1        2 0.98453561E+00 0.14907527E+02</pdfrwt>
<pdfrwt beam="2">  1       -2 0.99491079E+00 0.14907527E+02</pdfrwt>
<totfact>-0.37508267E-13</totfact>
</mgrwt>
</event>
<event>
 4    1  0.5245809E-019  0.1490194E+02  0.7818608E-02  0.1871076E+00
         -2   -1    0    0    0  501 -0.00000000000E+00  0.00000000000E+00  0.11848977470E+03  0.11848977473E+03  0.25500000000E-02 0.  1.
          2   -1    0    0  501    0  0.00000000000E+00 -0.00000000000E+00 -0.46853420671E+00  0.46854114585E+00  0.25500000000E-02 0. -1.
         31    1    1    2    0    0  0.13560852244E+00 -0.17100341393E+00  0.58197748690E+02  0.58672689648E+02  0.74470750000E+01 0. -1.
        -31    1    1    2    0    0 -0.13560852244E+00  0.17100341393E+00  0.59823491808E+02  0.60285626230E+02  0.74470750000E+01 0. -1.
<mgrwt>
<rscale>  0 0.14901936E+02</rscale>
<asrwt>0</asrwt>
<pdfrwt beam="2">  1        2 0.99507948E+00 0.14901936E+02</pdfrwt>
<pdfrwt beam="1">  1       -2 0.98363059E+00 0.14901936E+02</pdfrwt>
<totfact> 0.68417729E-13</totfact>
</mgrwt>
</event>
<event>
 4    1  0.5245809E-019  0.1491702E+02  0.7818608E-02  0.1870611E+00
          2   -1    0    0  501    0  0.00000000000E+00  0.00000000000E+00  0.12018415668E+03  0.12018415671E+03  0.25500000000E-02 0. -1.
         -2   -1    0    0    0  501 -0.00000000000E+00 -0.00000000000E+00 -0.46286413018E+00  0.46287115432E+00  0.25500000000E-02 0.  1.
         31    1    1    2    0    0 -0.28351233891E+00  0.17289235419E+00  0.61844459988E+02  0.62292105666E+02  0.74470750000E+01 0. -1.
        -31    1    1    2    0    0  0.28351233891E+00 -0.17289235419E+00  0.57876832564E+02  0.58354922198E+02  0.74470750000E+01 0.  1.
<mgrwt>
<rscale>  0 0.14917019E+02</rscale>
<asrwt>0</asrwt>
<pdfrwt beam="1">  1        2 0.99759404E+00 0.14917019E+02</pdfrwt>
<pdfrwt beam="2">  1       -2 0.98313826E+00 0.14917019E+02</pdfrwt>
<totfact> 0.48795994E-13</totfact>
</mgrwt>
</event>
<event>
 4    1  0.5245809E-019  0.1492567E+02  0.7818608E-02  0.1870345E+00
         -2   -1    0    0    0  501 -0.00000000000E+00  0.00000000000E+00  0.11871384807E+03  0.11871384810E+03  0.25500000000E-02 0. -1.
          2   -1    0    0  501    0  0.00000000000E+00 -0.00000000000E+00 -0.46914052922E+00  0.46914745940E+00  0.25500000000E-02 0.  1.
         31    1    1    2    0    0 -0.42040633739E-02  0.48467249858E+00  0.59071248662E+02  0.59540795003E+02  0.74470750000E+01 0.  1.
        -31    1    1    2    0    0  0.42040633739E-02 -0.48467249858E+00  0.59173458880E+02  0.59642200554E+02  0.74470750000E+01 0.  1.
<mgrwt>
<rscale>  0 0.14925668E+02</rscale>
<asrwt>0</asrwt>
<pdfrwt beam="2">  1        2 0.99636951E+00 0.14925668E+02</pdfrwt>
<pdfrwt beam="1">  1       -2 0.98548840E+00 0.14925668E+02</pdfrwt>
<totfact> 0.35066047E-13</totfact>
</mgrwt>
</event>
<event>
 4    1  0.5245809E-019  0.1490102E+02  0.7818608E-02  0.1871104E+00
         -2   -1    0    0    0  501 -0.00000000000E+00  0.00000000000E+00  0.11855792919E+03  0.11855792922E+03  0.25500000000E-02 0.  1.
          2   -1    0    0  501    0  0.00000000000E+00 -0.00000000000E+00 -0.46820757446E+00  0.46821451844E+00  0.25500000000E-02 0. -1.
         31    1    1    2    0    0  0.15833603907E+00  0.15844068728E+00  0.58787815470E+02  0.59258048800E+02  0.74470750000E+01 0. -1.
        -31    1    1    2    0    0 -0.15833603907E+00 -0.15844068728E+00  0.59301906146E+02  0.59768094937E+02  0.74470750000E+01 0.  1.
<mgrwt>
<rscale>  0 0.14901025E+02</rscale>
<asrwt>0</asrwt>
<pdfrwt beam="2">  1        2 0.99439076E+00 0.14901025E+02</pdfrwt>
<pdfrwt beam="1">  1       -2 0.98419143E+00 0.14901025E+02</pdfrwt>
<totfact> 0.63746888E-13</totfact>
</mgrwt>
</event>
<event>
 4    1  0.5245809E-019  0.1489849E+02  0.7818608E-02  0.1871182E+00
         -2   -1    0    0    0  501 -0.00000000000E+00  0.00000000000E+00  0.11799733365E+03  0.11799733367E+03  0.25500000000E-02 0.  1.
          2   -1    0    0  501    0  0.00000000000E+00 -0.00000000000E+00 -0.47027184504E+00  0.47027875855E+00  0.25500000000E-02 0. -1.
         31    1    1    2    0    0 -0.16971557585E+00 -0.50332162312E-01  0.59011463200E+02  0.59479770106E+02  0.74470750000E+01 0.  1.
        -31    1    1    2    0    0  0.16971557585E+00  0.50332162312E-01  0.58515598601E+02  0.58987842327E+02  0.74470750000E+01 0. -1.
<mgrwt>
<rscale>  0 0.14898488E+02</rscale>
<asrwt>0</asrwt>
<pdfrwt beam="2">  1        2 0.99873878E+00 0.14898488E+02</pdfrwt>
<pdfrwt beam="1">  1       -2 0.97957311E+00 0.14898488E+02</pdfrwt>
<totfact> 0.57073782E-13</totfact>
</mgrwt>
</event>
<event>
 4    1 -0.5245809E-019  0.1495279E+02  0.7818608E-02  0.1869513E+00
          2   -1    0    0  501    0  0.00000000000E+00  0.00000000000E+00  0.11939740927E+03  0.11939740930E+03  0.25500000000E-02 0. -1.
         -2   -1    0    0    0  501 -0.00000000000E+00 -0.00000000000E+00 -0.46815124912E+00  0.46815819394E+00  0.25500000000E-02 0.  1.
         31    1    1    2    0    0 -0.51717156794E+00 -0.22703716354E+00  0.62224435984E+02  0.62671032957E+02  0.74470750000E+01 0. -1.
        -31    1    1    2    0    0  0.51717156794E+00  0.22703716354E+00  0.56704822041E+02  0.57194534538E+02  0.74470750000E+01 0. -1.
<mgrwt>
<rscale>  0 0.14952788E+02</rscale>
<asrwt>0</asrwt>
<pdfrwt beam="1">  1        2 0.99113238E+00 0.14952788E+02</pdfrwt>
<pdfrwt beam="2">  1       -2 0.99429910E+00 0.14952788E+02</pdfrwt>
<totfact>-0.16075950E-13</totfact>
</mgrwt>
</event>
<event>
 4    1 -0.5245809E-019  0.1501264E+02  0.7818608E-02  0.1867683E+00
          2   -1    0    0  501    0  0.00000000000E+00  0.00000000000E+00  0.12020205233E+03  0.12020205236E+03  0.25500000000E-02 0. -1.
         -2   -1    0    0    0  501 -0.00000000000E+00 -0.00000000000E+00 -0.46874776218E+00  0.46875469816E+00  0.25500000000E-02 0.  1.
         31    1    1    2    0    0 -0.41470953321E+00  0.51290353579E+00  0.54469346548E+02  0.54980029952E+02  0.74470750000E+01 0.  1.
        -31    1    1    2    0    0  0.41470953321E+00 -0.51290353579E+00  0.65263958019E+02  0.65690777103E+02  0.74470750000E+01 0. -1.
<mgrwt>
<rscale>  0 0.15012643E+02</rscale>
<asrwt>0</asrwt>
<pdfrwt beam="1">  1        2 0.99779066E+00 0.15012643E+02</pdfrwt>
<pdfrwt beam="2">  1       -2 0.99558712E+00 0.15012643E+02</pdfrwt>
<totfact>-0.68829393E-14</totfact>
</mgrwt>
</event>
<event>
 4    1 -0.5245809E-019  0.1502641E+02  0.7818608E-02  0.1867264E+00
         -2   -1    0    0    0  501 -0.00000000000E+00  0.00000000000E+00  0.12026785808E+03  0.12026785811E+03  0.25500000000E-02 0.  1.
          2   -1    0    0  501    0  0.00000000000E+00 -0.00000000000E+00 -0.46935109513E+00  0.46935802220E+00  0.25500000000E-02 0. -1.
         31    1    1    2    0    0  0.82553914722E+00  0.54439225695E+00  0.60759668015E+02  0.61222333027E+02  0.74470750000E+01 0. -1.
        -31    1    1    2    0    0 -0.82553914722E+00 -0.54439225695E+00  0.59038838971E+02  0.59514883104E+02  0.74470750000E+01 0. -1.
<mgrwt>
<rscale>  0 0.15026413E+02</rscale>
<asrwt>0</asrwt>
<pdfrwt beam="2">  1        2 0.99686567E+00 0.15026413E+02</pdfrwt>
<pdfrwt beam="1">  1       -2 0.99833978E+00 0.15026413E+02</pdfrwt>
<totfact>-0.46219918E-14</totfact>
</mgrwt>
</event>
<event>
 4    1  0.5245809E-019  0.1490735E+02  0.7818608E-02  0.1870909E+00
          2   -1    0    0  501    0  0.00000000000E+00  0.00000000000E+00  0.12025991774E+03  0.12025991777E+03  0.25500000000E-02 0. -1.
         -2   -1    0    0    0  501 -0.00000000000E+00 -0.00000000000E+00 -0.46197300891E+00  0.46198004660E+00  0.25500000000E-02 0.  1.
         31    1    1    2    0    0  0.10127659044E+00 -0.10373045819E-01  0.62300887029E+02  0.62744480357E+02  0.74470750000E+01 0. -1.
        -31    1    1    2    0    0 -0.10127659044E+00  0.10373045819E-01  0.57497057701E+02  0.57977417456E+02  0.74470750000E+01 0.  1.
<mgrwt>
<rscale>  0 0.14907349E+02</rscale>
<asrwt>0</asrwt>
<pdfrwt beam="1">  1        2 0.99821312E+00 0.14907349E+02</pdfrwt>
<pdfrwt beam="2">  1       -2 0.98125513E+00 0.14907349E+02</pdfrwt>
<totfact> 0.56908908E-13</totfact>
</mgrwt>
</event>
<event>
 4    1 -0.5245809E-019  0.1494063E+02  0.7818608E-02  0.1869886E+00
          2   -1    0    0  501    0  0.00000000000E+00  0.00000000000E+00  0.11940793268E+03  0.11940793270E+03  0.25500000000E-02 0. -1.
         -2   -1    0    0    0  501 -0.00000000000E+00 -0.00000000000E+00 -0.46734920892E+00  0.46735616565E+00  0.25500000000E-02 0.  1.
         31    1    1    2    0    0  0.42762607900E+00 -0.39697574136E+00  0.58836408414E+02  0.59308703703E+02  0.74470750000E+01 0. -1.
        -31    1    1    2    0    0 -0.42762607900E+00  0.39697574136E+00  0.60104175053E+02  0.60566585166E+02  0.74470750000E+01 0. -1.
<mgrwt>
<rscale>  0 0.14940632E+02</rscale>
<asrwt>0</asrwt>
<pdfrwt beam="1">  1        2 0.99121276E+00 0.14940632E+02</pdfrwt>
<pdfrwt beam="2">  1       -2 0.99260267E+00 0.14940632E+02</pdfrwt>
<totfact>-0.12812699E-13</totfact>
</mgrwt>
</event>
<event>
 4    1 -0.5245809E-019  0.1493171E+02  0.7818608E-02  0.1870160E+00
         -2   -1    0    0    0  501 -0.00000000000E+00  0.00000000000E+00  0.11972240137E+03  0.11972240139E+03  0.25500000000E-02 0.  1.
          2   -1    0    0  501    0  0.00000000000E+00 -0.00000000000E+00 -0.46556502775E+00  0.46557201114E+00  0.25500000000E-02 0. -1.
         31    1    1    2    0    0  0.42890056726E+00  0.13156229540E+00  0.61887844099E+02  0.62335908091E+02  0.74470750000E+01 0. -1.
        -31    1    1    2    0    0 -0.42890056726E+00 -0.13156229540E+00  0.57368992239E+02  0.57852065312E+02  0.74470750000E+01 0. -1.
<mgrwt>
<rscale>  0 0.14931709E+02</rscale>
<asrwt>0</asrwt>
<pdfrwt beam="2">  1        2 0.98883811E+00 0.14931709E+02</pdfrwt>
<pdfrwt beam="1">  1       -2 0.99379826E+00 0.14931709E+02</pdfrwt>
<totfact>-0.19435720E-13</totfact>
</mgrwt>
</event>
<event>
 4    1  0.5245809E-019  0.1490293E+02  0.7818608E-02  0.1871045E+00
         -2   -1    0    0    0  501 -0.00000000000E+00  0.00000000000E+00  0.11909235370E+03  0.11909235373E+03  0.25500000000E-02 0. -1.
          2   -1    0    0  501    0  0.00000000000E+00 -0.00000000000E+00 -0.46622562135E+00  0.46623259485E+00  0.25500000000E-02 0.  1.
         31    1    1    2    0    0  0.23835074382E+00 -0.39321359083E-01  0.58639853236E+02  0.59111332846E+02  0.74470750000E+01 0. -1.
        -31    1    1    2    0    0 -0.23835074382E+00  0.39321359083E-01  0.59986274844E+02  0.60447253478E+02  0.74470750000E+01 0.  1.
<mgrwt>
<rscale>  0 0.14902929E+02</rscale>
<asrwt>0</asrwt>
<pdfrwt beam="2">  1        2 0.99021540E+00 0.14902929E+02</pdfrwt>
<pdfrwt beam="1">  1       -2 0.98859404E+00 0.14902929E+02</pdfrwt>
<totfact> 0.15056654E-13</totfact>
</mgrwt>
</event>
<event>
 4    1 -0.5245809E-019  0.1494311E+02  0.7818608E-02  0.1869809E+00
         -2   -1    0    0    0  501 -0.00000000000E+00  0.00000000000E+00  0.11949422284E+03  0.11949422287E+03  0.25500000000E-02 0. -1.
          2   -1    0    0  501    0  0.00000000000E+00 -0.00000000000E+00 -0.46716681366E+00  0.46717377312E+00  0.25500000000E-02 0.  1.
         31    1    1    2    0    0 -0.24639700808E+00  0.45927881383E+00  0.57057736075E+02  0.57544033753E+02  0.74470750000E+01 0.  1.
        -31    1    1    2    0    0  0.24639700808E+00 -0.45927881383E+00  0.61969319953E+02  0.62417362889E+02  0.74470750000E+01 0. -1.
<mgrwt>
<rscale>  0 0.14943113E+02</rscale>
<asrwt>0</asrwt>
<pdfrwt beam="2">  1        2 0.99221959E+00 0.14943113E+02</pdfrwt>
<pdfrwt beam="1">  1       -2 0.99192476E+00 0.14943113E+02</pdfrwt>
<totfact>-0.95460492E-14</totfact>
</mgrwt>
</event>
<event>
 4    1 -0.5245809E-019  0.1491175E+02  0.7818608E-02  0.1870773E+00
          2   -1    0    0  501    0  0.00000000000E+00  0.00000000000E+00  0.11878088240E+03  0.11878088243E+03  0.25500000000E-02 0. -1.
         -2   -1    0    0    0  501 -0.00000000000E+00 -0.00000000000E+00 -0.46800195840E+00  0.46800890543E+00  0.25500000000E-02 0.  1.
         31    1    1    2    0    0  0.33835502107E+00  0.63365982055E-01  0.58256078910E+02  0.58731151491E+02  0.74470750000E+01 0.  1.
        -31    1    1    2    0    0 -0.33835502107E+00 -0.63365982055E-01  0.60056801531E+02  0.60517739842E+02  0.74470750000E+01 0. -1.
<mgrwt>
<rscale>  0 0.14911754E+02</rscale>
<asrwt>0</asrwt>
<pdfrwt beam="1">  1        2 0.98603327E+00 0.14911754E+02</pdfrwt>
<pdfrwt beam="2">  1       -2 0.99396313E+00 0.14911754E+02</pdfrwt>
<totfact>-0.28786578E-13</totfact>
</mgrwt>
</event>
<event>
 4    1  0.5245809E-019  0.1492377E+02  0.7818608E-02  0.1870404E+00
         -2   -1    0    0    0  501 -0.00000000000E+00  0.00000000000E+00  0.11846299925E+03  0.11846299927E+03  0.25500000000E-02 0.  1.
          2   -1    0    0  501    0  0.00000000000E+00 -0.00000000000E+00 -0.47001426041E+00  0.47002117771E+00  0.25500000000E-02 0. -1.
         31    1    1    2    0    0 -0.43811058510E+00  0.70111901031E-01  0.60229283066E+02  0.60689556937E+02  0.74470750000E+01 0. -1.
        -31    1    1    2    0    0  0.43811058510E+00 -0.70111901031E-01  0.57763701921E+02  0.58243463515E+02  0.74470750000E+01 0. -1.
<mgrwt>
<rscale>  0 0.14923768E+02</rscale>
<asrwt>0</asrwt>
<pdfrwt beam="2">  1        2 0.99820948E+00 0.14923768E+02</pdfrwt>
<pdfrwt beam="1">  1       -2 0.98342143E+00 0.14923768E+02</pdfrwt>
<totfact> 0.36452439E-13</totfact>
</mgrwt>
</event>
<event>
 4    1 -0.5245809E-019  0.1497258E+02  0.7818608E-02  0.1868906E+00
          2   -1    0    0  501    0  0.00000000000E+00  0.00000000000E+00  0.11908210366E+03  0.11908210369E+03  0.25500000000E-02 0.  1.
         -2   -1    0    0    0  501 -0.00000000000E+00 -0.00000000000E+00 -0.47063438622E+00  0.47064129440E+00  0.25500000000E-02 0. -1.
         31    1    1    2    0    0  0.48589250345E+00  0.49603846508E+00  0.61874248176E+02  0.62324663329E+02  0.74470750000E+01 0.  1.
        -31    1    1    2    0    0 -0.48589250345E+00 -0.49603846508E+00  0.56737221099E+02  0.57228081653E+02  0.74470750000E+01 0.  1.
<mgrwt>
<rscale>  0 0.14972581E+02</rscale>
<asrwt>0</asrwt>
<pdfrwt beam="1">  1        2 0.98854574E+00 0.14972581E+02</pdfrwt>
<pdfrwt beam="2">  1       -2 0.99954182E+00 0.14972581E+02</pdfrwt>
<totfact>-0.32445611E-14</totfact>
</mgrwt>
</event>
<event>
 4    1 -0.5245809E-019  0.1490260E+02  0.7818608E-02  0.1871055E+00
         -2   -1    0    0    0  501 -0.00000000000E+00  0.00000000000E+00  0.11994802175E+03  0.11994802178E+03  0.25500000000E-02 0. -1.
          2   -1    0    0  501    0  0.00000000000E+00 -0.00000000000E+00 -0.46287924769E+00  0.46288627161E+00  0.25500000000E-02 0.  1.
         31    1    1    2    0    0 -0.13949196593E-01 -0.21932872614E+00  0.58764646124E+02  0.59235047563E+02  0.74470750000E+01 0.  1.
        -31    1    1    2    0    0  0.13949196593E-01  0.21932872614E+00  0.60720496380E+02  0.61175860487E+02  0.74470750000E+01 0.  1.
<mgrwt>
<rscale>  0 0.14902600E+02</rscale>
<asrwt>0</asrwt>
<pdfrwt beam="2">  1        2 0.98316282E+00 0.14902600E+02</pdfrwt>
<pdfrwt beam="1">  1       -2 0.99564163E+00 0.14902600E+02</pdfrwt>
<totfact>-0.45677097E-13</totfact>
</mgrwt>
</event>
<event>
 4    1 -0.5245809E-019  0.1493895E+02  0.7818608E-02  0.1869937E+00
          2   -1    0    0  501    0  0.00000000000E+00  0.00000000000E+00  0.11894595555E+03  0.11894595557E+03  0.25500000000E-02 0. -1.
         -2   -1    0    0    0  501 -0.00000000000E+00 -0.00000000000E+00 -0.46905905087E+00  0.46906598224E+00  0.25500000000E-02 0.  1.
         31    1    1    2    0    0 -0.24465220432E+00 -0.30615904081E+00  0.55841635311E+02  0.56337383222E+02  0.74470750000E+01 0.  1.
        -31    1    1    2    0    0  0.24465220432E+00  0.30615904081E+00  0.62635261183E+02  0.63077638333E+02  0.74470750000E+01 0.  1.
<mgrwt>
<rscale>  0 0.14938955E+02</rscale>
<asrwt>0</asrwt>
<pdfrwt beam="1">  1        2 0.98740695E+00 0.14938955E+02</pdfrwt>
<pdfrwt beam="2">  1       -2 0.99620480E+00 0.14938955E+02</pdfrwt>
<totfact>-0.22119530E-13</totfact>
</mgrwt>
</event>
<event>
 4    1 -0.5245809E-019  0.1492523E+02  0.7818608E-02  0.1870359E+00
          2   -1    0    0  501    0  0.00000000000E+00  0.00000000000E+00  0.11886285199E+03  0.11886285201E+03  0.25500000000E-02 0.  1.
         -2   -1    0    0    0  501 -0.00000000000E+00 -0.00000000000E+00 -0.46852518535E+00  0.46853212462E+00  0.25500000000E-02 0. -1.
         31    1    1    2    0    0  0.46749887259E+00 -0.25714544545E-01  0.58302801802E+02  0.58778353503E+02  0.74470750000E+01 0.  1.
        -31    1    1    2    0    0 -0.46749887259E+00  0.25714544545E-01  0.60091524998E+02  0.60553030635E+02  0.74470750000E+01 0.  1.
<mgrwt>
<rscale>  0 0.14925234E+02</rscale>
<asrwt>0</asrwt>
<pdfrwt beam="1">  1        2 0.98671538E+00 0.14925234E+02</pdfrwt>
<pdfrwt beam="2">  1       -2 0.99507269E+00 0.14925234E+02</pdfrwt>
<totfact>-0.26572235E-13</totfact>
</mgrwt>
</event>
<event>
 4    1 -0.5245809E-019  0.1491428E+02  0.7818608E-02  0.1870696E+00
         -2   -1    0    0    0  501 -0.00000000000E+00  0.00000000000E+00  0.12011865596E+03  0.12011865599E+03  0.25500000000E-02 0. -1.
          2   -1    0    0  501    0  0.00000000000E+00 -0.00000000000E+00 -0.46294643853E+00  0.46295346143E+00  0.25500000000E-02 0.  1.
         31    1    1    2    0    0 -0.32513935792E+00 -0.19142305677E+00  0.60534751084E+02  0.60992273061E+02  0.74470750000E+01 0.  1.
        -31    1    1    2    0    0  0.32513935792E+00  0.19142305677E+00  0.59120958442E+02  0.59589336391E+02  0.74470750000E+01 0.  1.
<mgrwt>
<rscale>  0 0.14914279E+02</rscale>
<asrwt>0</asrwt>
<pdfrwt beam="2">  1        2 0.98331035E+00 0.14914279E+02</pdfrwt>
<pdfrwt beam="1">  1       -2 0.99705311E+00 0.14914279E+02</pdfrwt>
<totfact>-0.36377568E-13</totfact>
</mgrwt>
</event>
<event>
 4    1 -0.5245809E-019  0.1494083E+02  0.7818608E-02  0.1869880E+00
         -2   -1    0    0    0  501 -0.00000000000E+00  0.00000000000E+00  0.11969056925E+03  0.11969056928E+03  0.25500000000E-02 0.  1.
          2   -1    0    0  501    0  0.00000000000E+00 -0.00000000000E+00 -0.46625768464E+00  0.46626465767E+00  0.25500000000E-02 0. -1.
         31    1    1    2    0    0 -0.49141810946E+00 -0.39811383259E-01  0.62218933053E+02  0.62664963361E+02  0.74470750000E+01 0.  1.
        -31    1    1    2    0    0  0.49141810946E+00  0.39811383259E-01  0.57005378511E+02  0.57491870573E+02  0.74470750000E+01 0.  1.
<mgrwt>
<rscale>  0 0.14940826E+02</rscale>
<asrwt>0</asrwt>
<pdfrwt beam="2">  1        2 0.99030253E+00 0.14940826E+02</pdfrwt>
<pdfrwt beam="1">  1       -2 0.99354077E+00 0.14940826E+02</pdfrwt>
<totfact>-0.16305732E-13</totfact>
</mgrwt>
</event>
<event>
 4    1 -0.5245809E-019  0.1495655E+02  0.7818608E-02  0.1869397E+00
         -2   -1    0    0    0  501 -0.00000000000E+00  0.00000000000E+00  0.12018278771E+03  0.12018278774E+03  0.25500000000E-02 0.  1.
          2   -1    0    0  501    0  0.00000000000E+00 -0.00000000000E+00 -0.46532573859E+00  0.46533272558E+00  0.25500000000E-02 0. -1.
         31    1    1    2    0    0 -0.65086430619E+00 -0.62836628871E-02  0.61511448032E+02  0.61964028507E+02  0.74470750000E+01 0.  1.
        -31    1    1    2    0    0  0.65086430619E+00  0.62836628871E-02  0.58206013941E+02  0.58684091956E+02  0.74470750000E+01 0. -1.
<mgrwt>
<rscale>  0 0.14956546E+02</rscale>
<asrwt>0</asrwt>
<pdfrwt beam="2">  1        2 0.98834651E+00 0.14956546E+02</pdfrwt>
<pdfrwt beam="1">  1       -2 0.99760307E+00 0.14956546E+02</pdfrwt>
<totfact>-0.14625045E-13</totfact>
</mgrwt>
</event>
<event>
 4    1  0.5245809E-019  0.1491016E+02  0.7818608E-02  0.1870823E+00
         -2   -1    0    0    0  501 -0.00000000000E+00  0.00000000000E+00  0.11902032454E+03  0.11902032457E+03  0.25500000000E-02 0. -1.
          2   -1    0    0  501    0  0.00000000000E+00 -0.00000000000E+00 -0.46696027990E+00  0.46696724243E+00  0.25500000000E-02 0.  1.
         31    1    1    2    0    0  0.27966459352E+00 -0.20259022114E+00  0.59282475563E+02  0.59749394056E+02  0.74470750000E+01 0.  1.
        -31    1    1    2    0    0 -0.27966459352E+00  0.20259022114E+00  0.59270888699E+02  0.59737897756E+02  0.74470750000E+01 0. -1.
<mgrwt>
<rscale>  0 0.14910155E+02</rscale>
<asrwt>0</asrwt>
<pdfrwt beam="2">  1        2 0.99176727E+00 0.14910155E+02</pdfrwt>
<pdfrwt beam="1">  1       -2 0.98800453E+00 0.14910155E+02</pdfrwt>
<totfact> 0.19480388E-13</totfact>
</mgrwt>
</event>
<event>
 4    1 -0.5245809E-019  0.1496458E+02  0.7818608E-02  0.1869151E+00
         -2   -1    0    0    0  501 -0.00000000000E+00  0.00000000000E+00  0.12003786666E+03  0.12003786669E+03  0.25500000000E-02 0.  1.
          2   -1    0    0  501    0  0.00000000000E+00 -0.00000000000E+00 -0.46638818965E+00  0.46639516072E+00  0.25500000000E-02 0. -1.
         31    1    1    2    0    0  0.36278730770E+00  0.56529909786E-01  0.54750888223E+02  0.55256253017E+02  0.74470750000E+01 0.  1.
        -31    1    1    2    0    0 -0.36278730770E+00 -0.56529909786E-01  0.64820590248E+02  0.65248008831E+02  0.74470750000E+01 0.  1.
<mgrwt>
<rscale>  0 0.14964580E+02</rscale>
<asrwt>0</asrwt>
<pdfrwt beam="2">  1        2 0.99058976E+00 0.14964580E+02</pdfrwt>
<pdfrwt beam="1">  1       -2 0.99641355E+00 0.14964580E+02</pdfrwt>
<totfact>-0.15069880E-13</totfact>
</mgrwt>
</event>
<event>
 4    1 -0.5245809E-019  0.1491373E+02  0.7818608E-02  0.1870713E+00
         -2   -1    0    0    0  501 -0.00000000000E+00  0.00000000000E+00  0.11960881438E+03  0.11960881441E+03  0.25500000000E-02 0. -1.
          2   -1    0    0  501    0  0.00000000000E+00 -0.00000000000E+00 -0.46488535708E+00  0.46489235069E+00  0.25500000000E-02 0.  1.
         31    1    1    2    0    0 -0.27576848980E+00  0.23100714080E+00  0.60605199248E+02  0.61062087374E+02  0.74470750000E+01 0. -1.
        -31    1    1    2    0    0  0.27576848980E+00 -0.23100714080E+00  0.58538729778E+02  0.59011619387E+02  0.74470750000E+01 0.  1.
<mgrwt>
<rscale>  0 0.14913726E+02</rscale>
<asrwt>0</asrwt>
<pdfrwt beam="2">  1        2 0.98739650E+00 0.14913726E+02</pdfrwt>
<pdfrwt beam="1">  1       -2 0.99285342E+00 0.14913726E+02</pdfrwt>
<totfact>-0.20400828E-13</totfact>
</mgrwt>
</event>
<event>
 4    1  0.5245809E-019  0.1489830E+02  0.7818608E-02  0.1871188E+00
         -2   -1    0    0    0  501 -0.00000000000E+00  0.00000000000E+00  0.11855798352E+03  0.11855798354E+03  0.25500000000E-02 0.  1.
          2   -1    0    0  501    0  0.00000000000E+00 -0.00000000000E+00 -0.46803622482E+00  0.46804317134E+00  0.25500000000E-02 0. -1.
         31    1    1    2    0    0  0.14400874848E-01  0.17270584604E+00  0.59282687633E+02  0.59748857844E+02  0.74470750000E+01 0.  1.
        -31    1    1    2    0    0 -0.14400874848E-01 -0.17270584604E+00  0.58807259659E+02  0.59277168871E+02  0.74470750000E+01 0.  1.
<mgrwt>
<rscale>  0 0.14898301E+02</rscale>
<asrwt>0</asrwt>
<pdfrwt beam="2">  1        2 0.99402828E+00 0.14898301E+02</pdfrwt>
<pdfrwt beam="1">  1       -2 0.98419047E+00 0.14898301E+02</pdfrwt>
<totfact> 0.65742702E-13</totfact>
</mgrwt>
</event>
<event>
 4    1  0.5245809E-019  0.1490401E+02  0.7818608E-02  0.1871012E+00
          2   -1    0    0  501    0  0.00000000000E+00  0.00000000000E+00  0.12022048647E+03  0.12022048649E+03  0.25500000000E-02 0. -1.
         -2   -1    0    0    0  501 -0.00000000000E+00 -0.00000000000E+00 -0.46191764724E+00  0.46192468578E+00  0.25500000000E-02 0.  1.
         31    1    1    2    0    0 -0.15139055750E+00  0.12363955706E+00  0.58358827936E+02  0.58832388444E+02  0.74470750000E+01 0.  1.
        -31    1    1    2    0    0  0.15139055750E+00 -0.12363955706E+00  0.61399740883E+02  0.61850022735E+02  0.74470750000E+01 0. -1.
<mgrwt>
<rscale>  0 0.14904012E+02</rscale>
<asrwt>0</asrwt>
<pdfrwt beam="1">  1        2 0.99788661E+00 0.14904012E+02</pdfrwt>
<pdfrwt beam="2">  1       -2 0.98113676E+00 0.14904012E+02</pdfrwt>
<totfact> 0.66359247E-13</totfact>
</mgrwt>
</event>
<event>
 4    1 -0.5245809E-019  0.1490685E+02  0.7818608E-02  0.1870924E+00
          2   -1    0    0  501    0  0.00000000000E+00  0.00000000000E+00  0.11859318612E+03  0.11859318615E+03  0.25500000000E-02 0. -1.
         -2   -1    0    0    0  501 -0.00000000000E+00 -0.00000000000E+00 -0.46843466369E+00  0.46844160431E+00  0.25500000000E-02 0.  1.
         31    1    1    2    0    0  0.13587345900E+00 -0.26970218479E+00  0.59531314062E+02  0.59996062211E+02  0.74470750000E+01 0. -1.
        -31    1    1    2    0    0 -0.13587345900E+00  0.26970218479E+00  0.58593437394E+02  0.59065565540E+02  0.74470750000E+01 0.  1.
<mgrwt>
<rscale>  0 0.14906854E+02</rscale>
<asrwt>0</asrwt>
<pdfrwt beam="1">  1        2 0.98448484E+00 0.14906854E+02</pdfrwt>
<pdfrwt beam="2">  1       -2 0.99487232E+00 0.14906854E+02</pdfrwt>
<totfact>-0.37841334E-13</totfact>
</mgrwt>
</event>
<event>
 4    1 -0.5245809E-019  0.1497362E+02  0.7818608E-02  0.1868875E+00
          2   -1    0    0  501    0  0.00000000000E+00  0.00000000000E+00  0.11942154910E+03  0.11942154913E+03  0.25500000000E-02 0. -1.
         -2   -1    0    0    0  501 -0.00000000000E+00 -0.00000000000E+00 -0.46936169600E+00  0.46936862291E+00  0.25500000000E-02 0.  1.
         31    1    1    2    0    0  0.38070187268E-01 -0.40312461375E+00  0.64723046175E+02  0.65151328390E+02  0.74470750000E+01 0. -1.
        -31    1    1    2    0    0 -0.38070187268E-01  0.40312461375E+00  0.54229141229E+02  0.54739589359E+02  0.74470750000E+01 0.  1.
<mgrwt>
<rscale>  0 0.14973619E+02</rscale>
<asrwt>0</asrwt>
<pdfrwt beam="1">  1        2 0.99134199E+00 0.14973619E+02</pdfrwt>
<pdfrwt beam="2">  1       -2 0.99686064E+00 0.14973619E+02</pdfrwt>
<totfact>-0.13116175E-13</totfact>
</mgrwt>
</event>
<event>
 4    1  0.5245809E-019  0.1490205E+02  0.7818608E-02  0.1871072E+00
          2   -1    0    0  501    0  0.00000000000E+00  0.00000000000E+00  0.11954263720E+03  0.11954263722E+03  0.25500000000E-02 0.  1.
         -2   -1    0    0    0  501 -0.00000000000E+00 -0.00000000000E+00 -0.46441485928E+00  0.46442185997E+00  0.25500000000E-02 0. -1.
         31    1    1    2    0    0 -0.18627646713E+00 -0.13211699806E+00  0.58879013520E+02  0.59348540951E+02  0.74470750000E+01 0.  1.
        -31    1    1    2    0    0  0.18627646713E+00  0.13211699806E+00  0.60199208818E+02  0.60658518133E+02  0.74470750000E+01 0. -1.
<mgrwt>
<rscale>  0 0.14902053E+02</rscale>
<asrwt>0</asrwt>
<pdfrwt beam="1">  1        2 0.99230233E+00 0.14902053E+02</pdfrwt>
<pdfrwt beam="2">  1       -2 0.98639895E+00 0.14902053E+02</pdfrwt>
<totfact> 0.38531035E-13</totfact>
</mgrwt>
</event>
<event>
 4    1 -0.5245809E-019  0.1496729E+02  0.7818608E-02  0.1869068E+00
          2   -1    0    0  501    0  0.00000000000E+00  0.00000000000E+00  0.11951807299E+03  0.11951807301E+03  0.25500000000E-02 0. -1.
         -2   -1    0    0    0  501 -0.00000000000E+00 -0.00000000000E+00 -0.46858595603E+00  0.46859289441E+00  0.25500000000E-02 0.  1.
         31    1    1    2    0    0  0.57827016516E+00 -0.37643760802E+00  0.61643926572E+02  0.62095963725E+02  0.74470750000E+01 0. -1.
        -31    1    1    2    0    0 -0.57827016516E+00  0.37643760802E+00  0.57405560459E+02  0.57890702183E+02  0.74470750000E+01 0. -1.
<mgrwt>
<rscale>  0 0.14967285E+02</rscale>
<asrwt>0</asrwt>
<pdfrwt beam="1">  1        2 0.99213370E+00 0.14967285E+02</pdfrwt>
<pdfrwt beam="2">  1       -2 0.99522268E+00 0.14967285E+02</pdfrwt>
<totfact>-0.14885941E-13</totfact>
</mgrwt>
</event>
<event>
 4    1 -0.5245809E-019  0.1494349E+02  0.7818608E-02  0.1869798E+00
         -2   -1    0    0    0  501 -0.00000000000E+00  0.00000000000E+00  0.11987926277E+03  0.11987926280E+03  0.25500000000E-02 0.  1.
          2   -1    0    0  501    0  0.00000000000E+00 -0.00000000000E+00 -0.46569004816E+00  0.46569702968E+00  0.25500000000E-02 0. -1.
         31    1    1    2    0    0  0.11812553075E+00 -0.50275843482E+00  0.57142894403E+02  0.57628430714E+02  0.74470750000E+01 0. -1.
        -31    1    1    2    0    0 -0.11812553075E+00  0.50275843482E+00  0.62270678319E+02  0.62716529114E+02  0.74470750000E+01 0. -1.
<mgrwt>
<rscale>  0 0.14943494E+02</rscale>
<asrwt>0</asrwt>
<pdfrwt beam="2">  1        2 0.98910763E+00 0.14943494E+02</pdfrwt>
<pdfrwt beam="1">  1       -2 0.99509633E+00 0.14943494E+02</pdfrwt>
<totfact>-0.19518142E-13</totfact>
</mgrwt>
</event>
<event>
 4    1  0.5245809E-019  0.1492945E+02  0.7818608E-02  0.1870229E+00
         -2   -1    0    0    0  501 -0.00000000000E+00  0.00000000000E+00  0.11861477410E+03  0.11861477413E+03  0.25500000000E-02 0.  1.
          2   -1    0    0  501    0  0.00000000000E+00 -0.00000000000E+00 -0.46977056366E+00  0.46977748455E+00  0.25500000000E-02 0. -1.
         31    1    1    2    0    0 -0.39949014755E+00  0.86005751814E-02  0.56505726538E+02  0.56995751806E+02  0.74470750000E+01 0. -1.
        -31    1    1    2    0    0  0.39949014755E+00 -0.86005751814E-02  0.61639277001E+02  0.62088799808E+02  0.74470750000E+01 0.  1.
<mgrwt>
<rscale>  0 0.14929453E+02</rscale>
<asrwt>0</asrwt>
<pdfrwt beam="2">  1        2 0.99769901E+00 0.14929453E+02</pdfrwt>
<pdfrwt beam="1">  1       -2 0.98467439E+00 0.14929453E+02</pdfrwt>
<totfact> 0.32421696E-13</totfact>
</mgrwt>
</event>
<event>
 4    1 -0.5245809E-019  0.1499345E+02  0.7818608E-02  0.1868268E+00
          2   -1    0    0  501    0  0.00000000000E+00  0.00000000000E+00  0.11992069081E+03  0.11992069084E+03  0.25500000000E-02 0. -1.
         -2   -1    0    0    0  501 -0.00000000000E+00 -0.00000000000E+00 -0.46864694315E+00  0.46865388063E+00  0.25500000000E-02 0.  1.
         31    1    1    2    0    0  0.40702730460E+00 -0.52297093543E+00  0.55307711952E+02  0.55810761483E+02  0.74470750000E+01 0.  1.
        -31    1    1    2    0    0 -0.40702730460E+00  0.52297093543E+00  0.64144331917E+02  0.64578583237E+02  0.74470750000E+01 0. -1.
<mgrwt>
<rscale>  0 0.14993450E+02</rscale>
<asrwt>0</asrwt>
<pdfrwt beam="1">  1        2 0.99546333E+00 0.14993450E+02</pdfrwt>
<pdfrwt beam="2">  1       -2 0.99536475E+00 0.14993450E+02</pdfrwt>
<totfact>-0.11179552E-13</totfact>
</mgrwt>
</event>
<event>
 4    1  0.5245809E-019  0.1495348E+02  0.7818608E-02  0.1869492E+00
          2   -1    0    0  501    0  0.00000000000E+00  0.00000000000E+00  0.12040562108E+03  0.12040562111E+03  0.25500000000E-02 0.  1.
         -2   -1    0    0    0  501 -0.00000000000E+00 -0.00000000000E+00 -0.46427390946E+00  0.46428091228E+00  0.25500000000E-02 0. -1.
         31    1    1    2    0    0 -0.42158855682E+00  0.86346408181E-01  0.64072337444E+02  0.64505104792E+02  0.74470750000E+01 0.  1.
        -31    1    1    2    0    0  0.42158855682E+00 -0.86346408181E-01  0.55869009730E+02  0.56364797231E+02  0.74470750000E+01 0. -1.
<mgrwt>
<rscale>  0 0.14953476E+02</rscale>
<asrwt>0</asrwt>
<pdfrwt beam="1">  1        2 0.99943692E+00 0.14953476E+02</pdfrwt>
<pdfrwt beam="2">  1       -2 0.98612809E+00 0.14953476E+02</pdfrwt>
<totfact> 0.61919292E-14</totfact>
</mgrwt>
</event>
<event>
 4    1 -0.5245809E-019  0.1497161E+02  0.7818608E-02  0.1868936E+00
         -2   -1    0    0    0  501 -0.00000000000E+00  0.00000000000E+00  0.12004133736E+03  0.12004133739E+03  0.25500000000E-02 0.  1.
          2   -1    0    0  501    0  0.00000000000E+00 -0.00000000000E+00 -0.46681276355E+00  0.46681972828E+00  0.25500000000E-02 0. -1.
         31    1    1    2    0    0 -0.74204378415E+00 -0.15744915613E+00  0.60221052641E+02  0.60684508125E+02  0.74470750000E+01 0. -1.
        -31    1    1    2    0    0  0.74204378415E+00  0.15744915613E+00  0.59353471956E+02  0.59823648991E+02  0.74470750000E+01 0. -1.
<mgrwt>
<rscale>  0 0.14971606E+02</rscale>
<asrwt>0</asrwt>
<pdfrwt beam="2">  1        2 0.99148814E+00 0.14971606E+02</pdfrwt>
<pdfrwt beam="1">  1       -2 0.99644576E+00 0.14971606E+02</pdfrwt>
<totfact>-0.13938337E-13</totfact>
</mgrwt>
</event>
<event>
 4    1 -0.5245809E-019  0.1493943E+02  0.7818608E-02  0.1869922E+00
         -2   -1    0    0    0  501 -0.00000000000E+00  0.00000000000E+00  0.11951616047E+03  0.11951616049E+03  0.25500000000E-02 0.  1.
          2   -1    0    0  501    0  0.00000000000E+00 -0.00000000000E+00 -0.46685091943E+00  0.46685788359E+00  0.25500000000E-02 0. -1.
         31    1    1    2    0    0 -0.45969860254E+00  0.22261928586E+00  0.57298367789E+02  0.57782547187E+02  0.74470750000E+01 0. -1.
        -31    1    1    2    0    0  0.45969860254E+00 -0.22261928586E+00  0.61750941757E+02  0.62200471189E+02  0.74470750000E+01 0.  1.
<mgrwt>
<rscale>  0 0.14939431E+02</rscale>
<asrwt>0</asrwt>
<pdfrwt beam="2">  1        2 0.99155199E+00 0.14939431E+02</pdfrwt>
<pdfrwt beam="1">  1       -2 0.99210354E+00 0.14939431E+02</pdfrwt>
<totfact>-0.10746997E-13</totfact>
</mgrwt>
</event>
<event>
 4    1 -0.5245809E-019  0.1498520E+02  0.7818608E-02  0.1868520E+00
          2   -1    0    0  501    0  0.00000000000E+00  0.00000000000E+00  0.11975073747E+03  0.11975073750E+03  0.25500000000E-02 0. -1.
         -2   -1    0    0    0  501 -0.00000000000E+00 -0.00000000000E+00 -0.46879572052E+00  0.46880265579E+00  0.25500000000E-02 0.  1.
         31    1    1    2    0    0 -0.82385778964E+00 -0.80520044022E-02  0.59932358244E+02  0.60398884901E+02  0.74470750000E+01 0. -1.
        -31    1    1    2    0    0  0.82385778964E+00  0.80520044022E-02  0.59349583507E+02  0.59820655254E+02  0.74470750000E+01 0. -1.
<mgrwt>
<rscale>  0 0.14985200E+02</rscale>
<asrwt>0</asrwt>
<pdfrwt beam="1">  1        2 0.99405927E+00 0.14985200E+02</pdfrwt>
<pdfrwt beam="2">  1       -2 0.99567400E+00 0.14985200E+02</pdfrwt>
<totfact>-0.12572136E-13</totfact>
</mgrwt>
</event>
<event>
 4    1 -0.5245809E-019  0.1496742E+02  0.7818608E-02  0.1869064E+00
          2   -1    0    0  501    0  0.00000000000E+00  0.00000000000E+00  0.11950146938E+03  0.11950146941E+03  0.25500000000E-02 0. -1.
         -2   -1    0    0    0  501 -0.00000000000E+00 -0.00000000000E+00 -0.46865962093E+00  0.46866655822E+00  0.25500000000E-02 0.  1.
         31    1    1    2    0    0 -0.38682813106E+00  0.42952568430E+00  0.63214603614E+02  0.63654372705E+02  0.74470750000E+01 0. -1.
        -31    1    1    2    0    0  0.38682813106E+00 -0.42952568430E+00  0.55818206149E+02  0.56315763265E+02  0.74470750000E+01 0.  1.
<mgrwt>
<rscale>  0 0.14967422E+02</rscale>
<asrwt>0</asrwt>
<pdfrwt beam="1">  1        2 0.99199702E+00 0.14967422E+02</pdfrwt>
<pdfrwt beam="2">  1       -2 0.99537798E+00 0.14967422E+02</pdfrwt>
<totfact>-0.14927658E-13</totfact>
</mgrwt>
</event>
<event>
 4    1  0.5245809E-019  0.1490470E+02  0.7818608E-02  0.1870991E+00
         -2   -1    0    0    0  501 -0.00000000000E+00  0.00000000000E+00  0.11844734439E+03  0.11844734441E+03  0.25500000000E-02 0.  1.
          2   -1    0    0  501    0  0.00000000000E+00 -0.00000000000E+00 -0.46887602629E+00  0.46888296037E+00  0.25500000000E-02 0. -1.
         31    1    1    2    0    0  0.15170841451E+00  0.14129594271E+00  0.57483272991E+02  0.57964028327E+02  0.74470750000E+01 0. -1.
        -31    1    1    2    0    0 -0.15170841451E+00 -0.14129594271E+00  0.60495195368E+02  0.60952199046E+02  0.74470750000E+01 0. -1.
<mgrwt>
<rscale>  0 0.14904702E+02</rscale>
<asrwt>0</asrwt>
<pdfrwt beam="2">  1        2 0.99580116E+00 0.14904702E+02</pdfrwt>
<pdfrwt beam="1">  1       -2 0.98328257E+00 0.14904702E+02</pdfrwt>
<totfact> 0.68027774E-13</totfact>
</mgrwt>
</event>
<event>
 4    1 -0.5245809E-019  0.1498885E+02  0.7818608E-02  0.1868409E+00
         -2   -1    0    0    0  501 -0.00000000000E+00  0.00000000000E+00  0.11963710916E+03  0.11963710918E+03  0.25500000000E-02 0.  1.
          2   -1    0    0  501    0  0.00000000000E+00 -0.00000000000E+00 -0.46946987149E+00  0.46947679681E+00  0.25500000000E-02 0. -1.
         31    1    1    2    0    0  0.19841251844E+00 -0.31364570904E+00  0.53535320302E+02  0.54052078472E+02  0.74470750000E+01 0. -1.
        -31    1    1    2    0    0 -0.19841251844E+00  0.31364570904E+00  0.65632318984E+02  0.66054507510E+02  0.74470750000E+01 0.  1.
<mgrwt>
<rscale>  0 0.14988854E+02</rscale>
<asrwt>0</asrwt>
<pdfrwt beam="2">  1        2 0.99709652E+00 0.14988854E+02</pdfrwt>
<pdfrwt beam="1">  1       -2 0.99312529E+00 0.14988854E+02</pdfrwt>
<totfact>-0.76348953E-14</totfact>
</mgrwt>
</event>
<event>
 4    1 -0.5245809E-019  0.1501532E+02  0.7818608E-02  0.1867601E+00
         -2   -1    0    0    0  501 -0.00000000000E+00  0.00000000000E+00  0.11988442286E+03  0.11988442289E+03  0.25500000000E-02 0. -1.
          2   -1    0    0  501    0  0.00000000000E+00 -0.00000000000E+00 -0.47015719006E+00  0.47016410525E+00  0.25500000000E-02 0.  1.
         31    1    1    2    0    0  0.35810935315E+00 -0.62535016566E+00  0.64691623652E+02  0.65122840862E+02  0.74470750000E+01 0. -1.
        -31    1    1    2    0    0 -0.35810935315E+00  0.62535016566E+00  0.54722642017E+02  0.55231746130E+02  0.74470750000E+01 0.  1.
<mgrwt>
<rscale>  0 0.15015318E+02</rscale>
<asrwt>0</asrwt>
<pdfrwt beam="2">  1        2 0.99855863E+00 0.15015318E+02</pdfrwt>
<pdfrwt beam="1">  1       -2 0.99517593E+00 0.15015318E+02</pdfrwt>
<totfact>-0.49958913E-14</totfact>
</mgrwt>
</event>
<event>
 4    1 -0.5245809E-019  0.1498402E+02  0.7818608E-02  0.1868556E+00
          2   -1    0    0  501    0  0.00000000000E+00  0.00000000000E+00  0.11950500961E+03  0.11950500964E+03  0.25500000000E-02 0. -1.
         -2   -1    0    0    0  501 -0.00000000000E+00 -0.00000000000E+00 -0.46968591044E+00  0.46969283257E+00  0.25500000000E-02 0.  1.
         31    1    1    2    0    0  0.30169618470E+00 -0.76105052533E+00  0.59782199074E+02  0.60249817184E+02  0.74470750000E+01 0.  1.
        -31    1    1    2    0    0 -0.30169618470E+00  0.76105052533E+00  0.59253124627E+02  0.59724885288E+02  0.74470750000E+01 0. -1.
<mgrwt>
<rscale>  0 0.14984023E+02</rscale>
<asrwt>0</asrwt>
<pdfrwt beam="1">  1        2 0.99203478E+00 0.14984023E+02</pdfrwt>
<pdfrwt beam="2">  1       -2 0.99754925E+00 0.14984023E+02</pdfrwt>
<totfact>-0.10504822E-13</totfact>
</mgrwt>
</event>
<event>
 4    1 -0.5245809E-019  0.1501192E+02  0.7818608E-02  0.1867705E+00
         -2   -1    0    0    0  501 -0.00000000000E+00  0.00000000000E+00  0.11991702725E+03  0.11991702727E+03  0.25500000000E-02 0.  1.
          2   -1    0    0  501    0  0.00000000000E+00 -0.00000000000E+00 -0.46981680528E+00  0.46982372548E+00  0.25500000000E-02 0. -1.
         31    1    1    2    0    0 -0.81817196706E+00  0.16978846837E+00  0.63147560393E+02  0.63590656099E+02  0.74470750000E+01 0.  1.
        -31    1    1    2    0    0  0.81817196706E+00 -0.16978846837E+00  0.56299650048E+02  0.56796194900E+02  0.74470750000E+01 0. -1.
<mgrwt>
<rscale>  0 0.15011922E+02</rscale>
<asrwt>0</asrwt>
<pdfrwt beam="2">  1        2 0.99783958E+00 0.15011922E+02</pdfrwt>
<pdfrwt beam="1">  1       -2 0.99544271E+00 0.15011922E+02</pdfrwt>
<totfact>-0.68299439E-14</totfact>
</mgrwt>
</event>
<event>
 4    1  0.5245809E-019  0.1493632E+02  0.7818608E-02  0.1870018E+00
          2   -1    0    0  501    0  0.00000000000E+00  0.00000000000E+00  0.12025336522E+03  0.12025336525E+03  0.25500000000E-02 0. -1.
         -2   -1    0    0    0  501 -0.00000000000E+00 -0.00000000000E+00 -0.46379587200E+00  0.46380288204E+00  0.25500000000E-02 0.  1.
         31    1    1    2    0    0 -0.95179248400E-01  0.33635615721E+00  0.56350440501E+02  0.56841474869E+02  0.74470750000E+01 0.  1.
        -31    1    1    2    0    0  0.95179248400E-01 -0.33635615721E+00  0.63439128848E+02  0.63875693261E+02  0.74470750000E+01 0. -1.
<mgrwt>
<rscale>  0 0.14936323E+02</rscale>
<asrwt>0</asrwt>
<pdfrwt beam="1">  1        2 0.99817401E+00 0.14936323E+02</pdfrwt>
<pdfrwt beam="2">  1       -2 0.98511185E+00 0.14936323E+02</pdfrwt>
<totfact> 0.24005990E-13</totfact>
</mgrwt>
</event>
<event>
 4    1 -0.5245809E-019  0.1498981E+02  0.7818608E-02  0.1868380E+00
         -2   -1    0    0    0  501 -0.00000000000E+00  0.00000000000E+00  0.11979976403E+03  0.11979976406E+03  0.25500000000E-02 0.  1.
          2   -1    0    0  501    0  0.00000000000E+00 -0.00000000000E+00 -0.46889223812E+00  0.46889917196E+00  0.25500000000E-02 0. -1.
         31    1    1    2    0    0 -0.12910500196E+00 -0.50449299187E+00  0.54322270160E+02  0.54832829060E+02  0.74470750000E+01 0. -1.
        -31    1    1    2    0    0  0.12910500196E+00  0.50449299187E+00  0.65008601633E+02  0.65435834171E+02  0.74470750000E+01 0. -1.
<mgrwt>
<rscale>  0 0.14989810E+02</rscale>
<asrwt>0</asrwt>
<pdfrwt beam="2">  1        2 0.99587978E+00 0.14989810E+02</pdfrwt>
<pdfrwt beam="1">  1       -2 0.99446546E+00 0.14989810E+02</pdfrwt>
<totfact>-0.10727378E-13</totfact>
</mgrwt>
</event>
<event>
 4    1 -0.5245809E-019  0.1498770E+02  0.7818608E-02  0.1868444E+00
          2   -1    0    0  501    0  0.00000000000E+00  0.00000000000E+00  0.11972637842E+03  0.11972637844E+03  0.25500000000E-02 0. -1.
         -2   -1    0    0    0  501 -0.00000000000E+00 -0.00000000000E+00 -0.46904747055E+00  0.46905440210E+00  0.25500000000E-02 0.  1.
         31    1    1    2    0    0  0.88409289997E-01  0.83111244077E+00  0.59493752748E+02  0.59963856666E+02  0.74470750000E+01 0.  1.
        -31    1    1    2    0    0 -0.88409289997E-01 -0.83111244077E+00  0.59763578196E+02  0.60231576179E+02  0.74470750000E+01 0.  1.
<mgrwt>
<rscale>  0 0.14987698E+02</rscale>
<asrwt>0</asrwt>
<pdfrwt beam="1">  1        2 0.99385994E+00 0.14987698E+02</pdfrwt>
<pdfrwt beam="2">  1       -2 0.99620581E+00 0.14987698E+02</pdfrwt>
<totfact>-0.12102072E-13</totfact>
</mgrwt>
</event>
<event>
 4    1 -0.5245809E-019  0.1495503E+02  0.7818608E-02  0.1869444E+00
         -2   -1    0    0    0  501 -0.00000000000E+00  0.00000000000E+00  0.11990653993E+03  0.11990653996E+03  0.25500000000E-02 0.  1.
          2   -1    0    0  501    0  0.00000000000E+00 -0.00000000000E+00 -0.46630299368E+00  0.46630996603E+00  0.25500000000E-02 0. -1.
         31    1    1    2    0    0 -0.43354798350E+00 -0.19301133988E+00  0.63572352829E+02  0.64008813358E+02  0.74470750000E+01 0.  1.
        -31    1    1    2    0    0  0.43354798350E+00  0.19301133988E+00  0.55867884108E+02  0.56364036566E+02  0.74470750000E+01 0. -1.
<mgrwt>
<rscale>  0 0.14955026E+02</rscale>
<asrwt>0</asrwt>
<pdfrwt beam="2">  1        2 0.99040531E+00 0.14955026E+02</pdfrwt>
<pdfrwt beam="1">  1       -2 0.99532694E+00 0.14955026E+02</pdfrwt>
<totfact>-0.17004172E-13</totfact>
</mgrwt>
</event>
<event>
 4    1 -0.5245809E-019  0.1497530E+02  0.7818608E-02  0.1868823E+00
         -2   -1    0    0    0  501 -0.00000000000E+00  0.00000000000E+00  0.11962654685E+03  0.11962654687E+03  0.25500000000E-02 0.  1.
          2   -1    0    0  501    0  0.00000000000E+00 -0.00000000000E+00 -0.46866238454E+00  0.46866932179E+00  0.25500000000E-02 0. -1.
         31    1    1    2    0    0  0.10700928507E+00  0.75226985173E+00  0.58222856513E+02  0.58702106500E+02  0.74470750000E+01 0. -1.
        -31    1    1    2    0    0 -0.10700928507E+00 -0.75226985173E+00  0.60935027949E+02  0.61393109695E+02  0.74470750000E+01 0.  1.
<mgrwt>
<rscale>  0 0.14975297E+02</rscale>
<asrwt>0</asrwt>
<pdfrwt beam="2">  1        2 0.99538789E+00 0.14975297E+02</pdfrwt>
<pdfrwt beam="1">  1       -2 0.99303127E+00 0.14975297E+02</pdfrwt>
<totfact>-0.99733816E-14</totfact>
</mgrwt>
</event>
<event>
 4    1 -0.5245809E-019  0.1493422E+02  0.7818608E-02  0.1870082E+00
          2   -1    0    0  501    0  0.00000000000E+00  0.00000000000E+00  0.11906112499E+03  0.11906112502E+03  0.25500000000E-02 0. -1.
         -2   -1    0    0    0  501 -0.00000000000E+00 -0.00000000000E+00 -0.46830861277E+00  0.46831555525E+00  0.25500000000E-02 0.  1.
         31    1    1    2    0    0 -0.53971455595E+00 -0.57930252823E-01  0.58778136500E+02  0.59250509737E+02  0.74470750000E+01 0. -1.
        -31    1    1    2    0    0  0.53971455595E+00  0.57930252823E-01  0.59814679879E+02  0.60278930836E+02  0.74470750000E+01 0. -1.
<mgrwt>
<rscale>  0 0.14934225E+02</rscale>
<asrwt>0</asrwt>
<pdfrwt beam="1">  1        2 0.98835305E+00 0.14934225E+02</pdfrwt>
<pdfrwt beam="2">  1       -2 0.99462104E+00 0.14934225E+02</pdfrwt>
<totfact>-0.21398938E-13</totfact>
</mgrwt>
</event>
<event>
 4    1 -0.5245809E-019  0.1491692E+02  0.7818608E-02  0.1870614E+00
          2   -1    0    0  501    0  0.00000000000E+00  0.00000000000E+00  0.11902709698E+03  0.11902709700E+03  0.25500000000E-02 0.  1.
         -2   -1    0    0    0  501 -0.00000000000E+00 -0.00000000000E+00 -0.46735754038E+00  0.46736449700E+00  0.25500000000E-02 0. -1.
         31    1    1    2    0    0 -0.22429515990E+00  0.21055070595E+00  0.57085143542E+02  0.57569672391E+02  0.74470750000E+01 0. -1.
        -31    1    1    2    0    0  0.22429515990E+00 -0.21055070595E+00  0.61474595894E+02  0.61924789110E+02  0.74470750000E+01 0.  1.
<mgrwt>
<rscale>  0 0.14916920E+02</rscale>
<asrwt>0</asrwt>
<pdfrwt beam="1">  1        2 0.98806381E+00 0.14916920E+02</pdfrwt>
<pdfrwt beam="2">  1       -2 0.99260792E+00 0.14916920E+02</pdfrwt>
<totfact>-0.17681438E-13</totfact>
</mgrwt>
</event>
<event>
 4    1 -0.5245809E-019  0.1502160E+02  0.7818608E-02  0.1867410E+00
          2   -1    0    0  501    0  0.00000000000E+00  0.00000000000E+00  0.12001888472E+03  0.12001888475E+03  0.25500000000E-02 0. -1.
         -2   -1    0    0    0  501 -0.00000000000E+00 -0.00000000000E+00 -0.47002336970E+00  0.47003028686E+00  0.25500000000E-02 0.  1.
         31    1    1    2    0    0  0.77591199089E+00  0.57419577312E+00  0.58600156236E+02  0.59079344759E+02  0.74470750000E+01 0. -1.
        -31    1    1    2    0    0 -0.77591199089E+00 -0.57419577312E+00  0.60948705118E+02  0.61409570279E+02  0.74470750000E+01 0.  1.
<mgrwt>
<rscale>  0 0.15021598E+02</rscale>
<asrwt>0</asrwt>
<pdfrwt beam="1">  1        2 0.99628665E+00 0.15021598E+02</pdfrwt>
<pdfrwt beam="2">  1       -2 0.99827989E+00 0.15021598E+02</pdfrwt>
<totfact>-0.53032947E-14</totfact>
</mgrwt>
</event>
<event>
 4    1 -0.5245809E-019  0.1499091E+02  0.7818608E-02  0.1868346E+00
          2   -1    0    0  501    0  0.00000000000E+00  0.00000000000E+00  0.12024656228E+03  0.12024656231E+03  0.25500000000E-02 0.  1.
         -2   -1    0    0    0  501 -0.00000000000E+00 -0.00000000000E+00 -0.46721848698E+00  0.46722544566E+00  0.25500000000E-02 0. -1.
         31    1    1    2    0    0  0.83102675031E+00 -0.16161601626E+00  0.60523072873E+02  0.60985391704E+02  0.74470750000E+01 0. -1.
        -31    1    1    2    0    0 -0.83102675031E+00  0.16161601626E+00  0.59256270922E+02  0.59728396051E+02  0.74470750000E+01 0.  1.
<mgrwt>
<rscale>  0 0.14990909E+02</rscale>
<asrwt>0</asrwt>
<pdfrwt beam="1">  1        2 0.99814606E+00 0.14990909E+02</pdfrwt>
<pdfrwt beam="2">  1       -2 0.99235309E+00 0.14990909E+02</pdfrwt>
<totfact>-0.45965396E-14</totfact>
</mgrwt>
</event>
<event>
 4    1  0.5245809E-019  0.1493167E+02  0.7818608E-02  0.1870161E+00
          2   -1    0    0  501    0  0.00000000000E+00  0.00000000000E+00  0.11996425729E+03  0.11996425732E+03  0.25500000000E-02 0. -1.
         -2   -1    0    0    0  501 -0.00000000000E+00 -0.00000000000E+00 -0.46462381477E+00  0.46463081231E+00  0.25500000000E-02 0.  1.
         31    1    1    2    0    0 -0.29712856411E+00 -0.54601633272E-02  0.56220990248E+02  0.56712846743E+02  0.74470750000E+01 0.  1.
        -31    1    1    2    0    0  0.29712856411E+00  0.54601633272E-02  0.63278643230E+02  0.63716041389E+02  0.74470750000E+01 0. -1.
<mgrwt>
<rscale>  0 0.14931668E+02</rscale>
<asrwt>0</asrwt>
<pdfrwt beam="1">  1        2 0.99579031E+00 0.14931668E+02</pdfrwt>
<pdfrwt beam="2">  1       -2 0.98685447E+00 0.14931668E+02</pdfrwt>
<totfact> 0.23768830E-13</totfact>
</mgrwt>
</event>
<event>
 4    1 -0.5245809E-019  0.1492442E+02  0.7818608E-02  0.1870384E+00
         -2   -1    0    0    0  501 -0.00000000000E+00  0.00000000000E+00  0.11975706511E+03  0.11975706514E+03  0.25500000000E-02 0.  1.
          2   -1    0    0  501    0  0.00000000000E+00 -0.00000000000E+00 -0.46497600466E+00  0.46498299690E+00  0.25500000000E-02 0. -1.
         31    1    1    2    0    0  0.69583639417E-01  0.30235704561E+00  0.56748388234E+02  0.57235782120E+02  0.74470750000E+01 0. -1.
        -31    1    1    2    0    0 -0.69583639417E-01 -0.30235704561E+00  0.62543700874E+02  0.62986266016E+02  0.74470750000E+01 0.  1.
<mgrwt>
<rscale>  0 0.14924421E+02</rscale>
<asrwt>0</asrwt>
<pdfrwt beam="2">  1        2 0.98759302E+00 0.14924421E+02</pdfrwt>
<pdfrwt beam="1">  1       -2 0.99408001E+00 0.14924421E+02</pdfrwt>
<totfact>-0.23155570E-13</totfact>
</mgrwt>
</event>
<event>
 4    1  0.5245809E-019  0.1492947E+02  0.7818608E-02  0.1870228E+00
         -2   -1    0    0    0  501 -0.00000000000E+00  0.00000000000E+00  0.11877338745E+03  0.11877338748E+03  0.25500000000E-02 0.  1.
          2   -1    0    0  501    0  0.00000000000E+00 -0.00000000000E+00 -0.46914417296E+00  0.46915110309E+00  0.25500000000E-02 0. -1.
         31    1    1    2    0    0 -0.40014360345E+00 -0.26812405224E+00  0.60565762695E+02  0.61023786693E+02  0.74470750000E+01 0.  1.
        -31    1    1    2    0    0  0.40014360345E+00  0.26812405224E+00  0.57738480580E+02  0.58218751886E+02  0.74470750000E+01 0. -1.
<mgrwt>
<rscale>  0 0.14929469E+02</rscale>
<asrwt>0</asrwt>
<pdfrwt beam="2">  1        2 0.99637919E+00 0.14929469E+02</pdfrwt>
<pdfrwt beam="1">  1       -2 0.98598074E+00 0.14929469E+02</pdfrwt>
<totfact> 0.29919510E-13</totfact>
</mgrwt>
</event>
<event>
 4    1 -0.5245809E-019  0.1492854E+02  0.7818608E-02  0.1870257E+00
          2   -1    0    0  501    0  0.00000000000E+00  0.00000000000E+00  0.11865889569E+03  0.11865889572E+03  0.25500000000E-02 0.  1.
         -2   -1    0    0    0  501 -0.00000000000E+00 -0.00000000000E+00 -0.46953822910E+00  0.46954515340E+00  0.25500000000E-02 0. -1.
         31    1    1    2    0    0 -0.45701838812E+00 -0.21790169345E+00  0.59137511422E+02  0.59606715479E+02  0.74470750000E+01 0. -1.
        -31    1    1    2    0    0  0.45701838812E+00  0.21790169345E+00  0.59051846039E+02  0.59521725391E+02  0.74470750000E+01 0. -1.
<mgrwt>
<rscale>  0 0.14928537E+02</rscale>
<asrwt>0</asrwt>
<pdfrwt beam="1">  1        2 0.98503730E+00 0.14928537E+02</pdfrwt>
<pdfrwt beam="2">  1       -2 0.99720899E+00 0.14928537E+02</pdfrwt>
<totfact>-0.26335698E-13</totfact>
</mgrwt>
</event>
<event>
 4    1 -0.5245809E-019  0.1491120E+02  0.7818608E-02  0.1870790E+00
          2   -1    0    0  501    0  0.00000000000E+00  0.00000000000E+00  0.11864761192E+03  0.11864761195E+03  0.25500000000E-02 0. -1.
         -2   -1    0    0    0  501 -0.00000000000E+00 -0.00000000000E+00 -0.46849294152E+00  0.46849988128E+00  0.25500000000E-02 0.  1.
         31    1    1    2    0    0  0.23689188966E+00 -0.25878868863E+00  0.58586339632E+02  0.59058794492E+02  0.74470750000E+01 0. -1.
        -31    1    1    2    0    0 -0.23689188966E+00  0.25878868863E+00  0.59592779351E+02  0.60057317341E+02  0.74470750000E+01 0. -1.
<mgrwt>
<rscale>  0 0.14911202E+02</rscale>
<asrwt>0</asrwt>
<pdfrwt beam="1">  1        2 0.98493535E+00 0.14911202E+02</pdfrwt>
<pdfrwt beam="2">  1       -2 0.99499740E+00 0.14911202E+02</pdfrwt>
<totfact>-0.35080818E-13</totfact>
</mgrwt>
</event>
<event>
 4    1  0.5245809E-019  0.1494024E+02  0.7818608E-02  0.1869898E+00
          2   -1    0    0  501    0  0.00000000000E+00  0.00000000000E+00  0.12033006453E+03  0.12033006455E+03  0.25500000000E-02 0.  1.
         -2   -1    0    0    0  501 -0.00000000000E+00 -0.00000000000E+00 -0.46374342024E+00  0.46375043107E+00  0.25500000000E-02 0. -1.
         31    1    1    2    0    0  0.56277329439E-01  0.44066430014E-01  0.64638302188E+02  0.65065921532E+02  0.74470750000E+01 0.  1.
        -31    1    1    2    0    0 -0.56277329439E-01 -0.44066430014E-01  0.55228018919E+02  0.55727893454E+02  0.74470750000E+01 0. -1.
<mgrwt>
<rscale>  0 0.14940241E+02</rscale>
<asrwt>0</asrwt>
<pdfrwt beam="1">  1        2 0.99880778E+00 0.14940241E+02</pdfrwt>
<pdfrwt beam="2">  1       -2 0.98500328E+00 0.14940241E+02</pdfrwt>
<totfact> 0.17343535E-13</totfact>
</mgrwt>
</event>
<event>
 4    1  0.5245809E-019  0.1493863E+02  0.7818608E-02  0.1869947E+00
          2   -1    0    0  501    0  0.00000000000E+00  0.00000000000E+00  0.11995548657E+03  0.11995548660E+03  0.25500000000E-02 0.  1.
         -2   -1    0    0    0  501 -0.00000000000E+00 -0.00000000000E+00 -0.46509138046E+00  0.46509837097E+00  0.25500000000E-02 0. -1.
         31    1    1    2    0    0  0.50563429591E+00  0.10218419060E+00  0.57679756646E+02  0.58160806051E+02  0.74470750000E+01 0. -1.
        -31    1    1    2    0    0 -0.50563429591E+00 -0.10218419060E+00  0.61810638548E+02  0.62259778922E+02  0.74470750000E+01 0.  1.
<mgrwt>
<rscale>  0 0.14938633E+02</rscale>
<asrwt>0</asrwt>
<pdfrwt beam="1">  1        2 0.99572165E+00 0.14938633E+02</pdfrwt>
<pdfrwt beam="2">  1       -2 0.98784344E+00 0.14938633E+02</pdfrwt>
<totfact> 0.15176618E-13</totfact>
</mgrwt>
</event>
<event>
 4    1 -0.5245809E-019  0.1493971E+02  0.7818608E-02  0.1869914E+00
         -2   -1    0    0    0  501 -0.00000000000E+00  0.00000000000E+00  0.11996123527E+03  0.11996123530E+03  0.25500000000E-02 0. -1.
          2   -1    0    0  501    0  0.00000000000E+00 -0.00000000000E+00 -0.46513601993E+00  0.46514300976E+00  0.25500000000E-02 0.  1.
         31    1    1    2    0    0 -0.91131917628E-01  0.50647925217E+00  0.61955034177E+02  0.62403125020E+02  0.74470750000E+01 0. -1.
        -31    1    1    2    0    0  0.91131917628E-01 -0.50647925217E+00  0.57541065071E+02  0.58023253286E+02  0.74470750000E+01 0. -1.
<mgrwt>
<rscale>  0 0.14939707E+02</rscale>
<asrwt>0</asrwt>
<pdfrwt beam="2">  1        2 0.98793807E+00 0.14939707E+02</pdfrwt>
<pdfrwt beam="1">  1       -2 0.99576955E+00 0.14939707E+02</pdfrwt>
<totfact>-0.21588944E-13</totfact>
</mgrwt>
</event>
<event>
 4    1 -0.5245809E-019  0.1498334E+02  0.7818608E-02  0.1868577E+00
          2   -1    0    0  501    0  0.00000000000E+00  0.00000000000E+00  0.12007981426E+03  0.12007981429E+03  0.25500000000E-02 0.  1.
         -2   -1    0    0    0  501 -0.00000000000E+00 -0.00000000000E+00 -0.46739489710E+00  0.46740185316E+00  0.25500000000E-02 0. -1.
         31    1    1    2    0    0 -0.14339293206E-01 -0.21275415267E-01  0.53242761348E+02  0.53761056725E+02  0.74470750000E+01 0. -1.
        -31    1    1    2    0    0  0.14339293206E-01  0.21275415267E-01  0.66369658013E+02  0.66786159413E+02  0.74470750000E+01 0.  1.
<mgrwt>
<rscale>  0 0.14983339E+02</rscale>
<asrwt>0</asrwt>
<pdfrwt beam="1">  1        2 0.99676873E+00 0.14983339E+02</pdfrwt>
<pdfrwt beam="2">  1       -2 0.99272099E+00 0.14983339E+02</pdfrwt>
<totfact>-0.75821715E-14</totfact>
</mgrwt>
</event>
<event>
 4    1 -0.5245809E-019  0.1500672E+02  0.7818608E-02  0.1867864E+00
         -2   -1    0    0    0  501 -0.00000000000E+00  0.00000000000E+00  0.11984949994E+03  0.11984949997E+03  0.25500000000E-02 0. -1.
          2   -1    0    0  501    0  0.00000000000E+00 -0.00000000000E+00 -0.46975549048E+00  0.46976241158E+00  0.25500000000E-02 0.  1.
         31    1    1    2    0    0 -0.67876317908E+00 -0.61466090229E+00  0.60123502484E+02  0.60589875428E+02  0.74470750000E+01 0. -1.
        -31    1    1    2    0    0  0.67876317908E+00  0.61466090229E+00  0.59256241964E+02  0.59729386949E+02  0.74470750000E+01 0.  1.
<mgrwt>
<rscale>  0 0.15006716E+02</rscale>
<asrwt>0</asrwt>
<pdfrwt beam="2">  1        2 0.99770767E+00 0.15006716E+02</pdfrwt>
<pdfrwt beam="1">  1       -2 0.99488384E+00 0.15006716E+02</pdfrwt>
<totfact>-0.72822200E-14</totfact>
</mgrwt>
</event>
<event>
 4    1 -0.5245809E-019  0.1491344E+02  0.7818608E-02  0.1870721E+00
          2   -1    0    0  501    0  0.00000000000E+00  0.00000000000E+00  0.11890678932E+03  0.11890678935E+03  0.25500000000E-02 0.  1.
         -2   -1    0    0    0  501 -0.00000000000E+00 -0.00000000000E+00 -0.46761206532E+00  0.46761901815E+00  0.25500000000E-02 0. -1.
         31    1    1    2    0    0 -0.29295800880E+00 -0.24028954001E+00  0.59325915425E+02  0.59792697970E+02  0.74470750000E+01 0.  1.
        -31    1    1    2    0    0  0.29295800880E+00  0.24028954001E+00  0.59113261831E+02  0.59581710397E+02  0.74470750000E+01 0.  1.
<mgrwt>
<rscale>  0 0.14913439E+02</rscale>
<asrwt>0</asrwt>
<pdfrwt beam="1">  1        2 0.98707113E+00 0.14913439E+02</pdfrwt>
<pdfrwt beam="2">  1       -2 0.99314244E+00 0.14913439E+02</pdfrwt>
<totfact>-0.22500527E-13</totfact>
</mgrwt>
</event>
<event>
 4    1 -0.5245809E-019  0.1495025E+02  0.7818608E-02  0.1869590E+00
         -2   -1    0    0    0  501 -0.00000000000E+00  0.00000000000E+00  0.12037446721E+03  0.12037446724E+03  0.25500000000E-02 0. -1.
          2   -1    0    0  501    0  0.00000000000E+00 -0.00000000000E+00 -0.46419361383E+00  0.46420061786E+00  0.25500000000E-02 0.  1.
         31    1    1    2    0    0 -0.51655725070E+00  0.37315082709E+00  0.59052011991E+02  0.59523147759E+02  0.74470750000E+01 0.  1.
        -31    1    1    2    0    0  0.51655725070E+00 -0.37315082709E+00  0.60858261605E+02  0.61315520095E+02  0.74470750000E+01 0. -1.
<mgrwt>
<rscale>  0 0.14950249E+02</rscale>
<asrwt>0</asrwt>
<pdfrwt beam="2">  1        2 0.98595721E+00 0.14950249E+02</pdfrwt>
<pdfrwt beam="1">  1       -2 0.99917865E+00 0.14950249E+02</pdfrwt>
<totfact>-0.80815789E-14</totfact>
</mgrwt>
</event>
<event>
 4    1 -0.5245809E-019  0.1497936E+02  0.7818608E-02  0.1868699E+00
         -2   -1    0    0    0  501 -0.00000000000E+00  0.00000000000E+00  0.11986034986E+03  0.11986034989E+03  0.25500000000E-02 0.  1.
          2   -1    0    0  501    0  0.00000000000E+00 -0.00000000000E+00 -0.46800226919E+00  0.46800921622E+00  0.25500000000E-02 0. -1.
         31    1    1    2    0    0  0.32129081800E+00 -0.71044616858E+00  0.61051045907E+02  0.61508512369E+02  0.74470750000E+01 0.  1.
        -31    1    1    2    0    0 -0.32129081800E+00  0.71044616858E+00  0.58341301688E+02  0.58819846738E+02  0.74470750000E+01 0.  1.
<mgrwt>
<rscale>  0 0.14979364E+02</rscale>
<asrwt>0</asrwt>
<pdfrwt beam="2">  1        2 0.99399892E+00 0.14979364E+02</pdfrwt>
<pdfrwt beam="1">  1       -2 0.99495906E+00 0.14979364E+02</pdfrwt>
<totfact>-0.13071005E-13</totfact>
</mgrwt>
</event>
<event>
 4    1  0.5245809E-019  0.1496649E+02  0.7818608E-02  0.1869093E+00
          2   -1    0    0  501    0  0.00000000000E+00  0.00000000000E+00  0.12031740853E+03  0.12031740855E+03  0.25500000000E-02 0.  1.
         -2   -1    0    0    0  501 -0.00000000000E+00 -0.00000000000E+00 -0.46542323934E+00  0.46543022486E+00  0.25500000000E-02 0. -1.
         31    1    1    2    0    0  0.73359806473E+00  0.41013425144E-01  0.60030359411E+02  0.60494981819E+02  0.74470750000E+01 0.  1.
        -31    1    1    2    0    0 -0.73359806473E+00 -0.41013425144E-01  0.59821625876E+02  0.60287856959E+02  0.74470750000E+01 0. -1.
<mgrwt>
<rscale>  0 0.14966488E+02</rscale>
<asrwt>0</asrwt>
<pdfrwt beam="1">  1        2 0.99871702E+00 0.14966488E+02</pdfrwt>
<pdfrwt beam="2">  1       -2 0.98855706E+00 0.14966488E+02</pdfrwt>
<totfact> 0.40256144E-14</totfact>
</mgrwt>
</event>
<event>
 4    1  0.5245809E-019  0.1494628E+02  0.7818608E-02  0.1869712E+00
          2   -1    0    0  501    0  0.00000000000E+00  0.00000000000E+00  0.12009761615E+03  0.12009761618E+03  0.25500000000E-02 0.  1.
         -2   -1    0    0    0  501 -0.00000000000E+00 -0.00000000000E+00 -0.46501677049E+00  0.46502376212E+00  0.25500000000E-02 0. -1.
         31    1    1    2    0    0 -0.22142738288E+00  0.57821501338E+00  0.59215910350E+02  0.59685562134E+02  0.74470750000E+01 0.  1.
        -31    1    1    2    0    0  0.22142738288E+00 -0.57821501338E+00  0.60416689034E+02  0.60877077809E+02  0.74470750000E+01 0.  1.
<mgrwt>
<rscale>  0 0.14946281E+02</rscale>
<asrwt>0</asrwt>
<pdfrwt beam="1">  1        2 0.99689626E+00 0.14946281E+02</pdfrwt>
<pdfrwt beam="2">  1       -2 0.98769010E+00 0.14946281E+02</pdfrwt>
<totfact> 0.13509529E-13</totfact>
</mgrwt>
</event>
<event>
 4    1  0.5245809E-019  0.1492175E+02  0.7818608E-02  0.1870466E+00
          2   -1    0    0  501    0  0.00000000000E+00  0.00000000000E+00  0.12038292638E+03  0.12038292641E+03  0.25500000000E-02 0. -1.
         -2   -1    0    0    0  501 -0.00000000000E+00 -0.00000000000E+00 -0.46239288601E+00  0.46239991732E+00  0.25500000000E-02 0.  1.
         31    1    1    2    0    0  0.98648955505E-01  0.22165835266E+00  0.63063682560E+02  0.63502329470E+02  0.74470750000E+01 0. -1.
        -31    1    1    2    0    0 -0.98648955505E-01 -0.22165835266E+00  0.56856850935E+02  0.57342996855E+02  0.74470750000E+01 0.  1.
<mgrwt>
<rscale>  0 0.14921747E+02</rscale>
<asrwt>0</asrwt>
<pdfrwt beam="1">  1        2 0.99923371E+00 0.14921747E+02</pdfrwt>
<pdfrwt beam="2">  1       -2 0.98214739E+00 0.14921747E+02</pdfrwt>
<totfact> 0.22989799E-13</totfact>
</mgrwt>
</event>
<event>
 4    1  0.5245809E-019  0.1491751E+02  0.7818608E-02  0.1870596E+00
         -2   -1    0    0    0  501 -0.00000000000E+00  0.00000000000E+00  0.11875830110E+03  0.11875830113E+03  0.25500000000E-02 0. -1.
          2   -1    0    0  501    0  0.00000000000E+00 -0.00000000000E+00 -0.46845231189E+00  0.46845925224E+00  0.25500000000E-02 0.  1.
         31    1    1    2    0    0  0.97206077632E-01  0.30836614664E+00  0.61252727921E+02  0.61704620107E+02  0.74470750000E+01 0.  1.
        -31    1    1    2    0    0 -0.97206077632E-01 -0.30836614664E+00  0.57037120866E+02  0.57522140271E+02  0.74470750000E+01 0. -1.
<mgrwt>
<rscale>  0 0.14917509E+02</rscale>
<asrwt>0</asrwt>
<pdfrwt beam="2">  1        2 0.99491509E+00 0.14917509E+02</pdfrwt>
<pdfrwt beam="1">  1       -2 0.98585027E+00 0.14917509E+02</pdfrwt>
<totfact> 0.37796514E-13</totfact>
</mgrwt>
</event>
<event>
 4    1  0.5245809E-019  0.1490612E+02  0.7818608E-02  0.1870947E+00
          2   -1    0    0  501    0  0.00000000000E+00  0.00000000000E+00  0.12014577897E+03  0.12014577900E+03  0.25500000000E-02 0.  1.
         -2   -1    0    0    0  501 -0.00000000000E+00 -0.00000000000E+00 -0.46233562929E+00  0.46234266146E+00  0.25500000000E-02 0. -1.
         31    1    1    2    0    0  0.22050117941E+00  0.13502083518E+00  0.61050604261E+02  0.61503675159E+02  0.74470750000E+01 0. -1.
        -31    1    1    2    0    0 -0.22050117941E+00 -0.13502083518E+00  0.58632839084E+02  0.59104446504E+02  0.74470750000E+01 0. -1.
<mgrwt>
<rscale>  0 0.14906120E+02</rscale>
<asrwt>0</asrwt>
<pdfrwt beam="1">  1        2 0.99727234E+00 0.14906120E+02</pdfrwt>
<pdfrwt beam="2">  1       -2 0.98201882E+00 0.14906120E+02</pdfrwt>
<totfact> 0.67605589E-13</totfact>
</mgrwt>
</event>
<event>
 4    1 -0.5245809E-019  0.1492009E+02  0.7818608E-02  0.1870517E+00
         -2   -1    0    0    0  501 -0.00000000000E+00  0.00000000000E+00  0.12014364467E+03  0.12014364470E+03  0.25500000000E-02 0. -1.
          2   -1    0    0  501    0  0.00000000000E+00 -0.00000000000E+00 -0.46321070753E+00  0.46321772642E+00  0.25500000000E-02 0.  1.
         31    1    1    2    0    0 -0.42733884902E+00 -0.51031623877E-01  0.59112754942E+02  0.59581557093E+02  0.74470750000E+01 0.  1.
        -31    1    1    2    0    0  0.42733884902E+00  0.51031623877E-01  0.60567679024E+02  0.61025305334E+02  0.74470750000E+01 0.  1.
<mgrwt>
<rscale>  0 0.14920087E+02</rscale>
<asrwt>0</asrwt>
<pdfrwt beam="2">  1        2 0.98387029E+00 0.14920087E+02</pdfrwt>
<pdfrwt beam="1">  1       -2 0.99726192E+00 0.14920087E+02</pdfrwt>
<totfact>-0.31503908E-13</totfact>
</mgrwt>
</event>
<event>
 4    1  0.5245809E-019  0.1490342E+02  0.7818608E-02  0.1871030E+00
          2   -1    0    0  501    0  0.00000000000E+00  0.00000000000E+00  0.11953820947E+03  0.11953820949E+03  0.25500000000E-02 0.  1.
         -2   -1    0    0    0  501 -0.00000000000E+00 -0.00000000000E+00 -0.46451732427E+00  0.46452432342E+00  0.25500000000E-02 0. -1.
         31    1    1    2    0    0  0.14704823169E+00  0.11450355116E+00  0.61028764963E+02  0.61481735606E+02  0.74470750000E+01 0.  1.
        -31    1    1    2    0    0 -0.14704823169E+00 -0.11450355116E+00  0.58044927178E+02  0.58520998210E+02  0.74470750000E+01 0. -1.
<mgrwt>
<rscale>  0 0.14903421E+02</rscale>
<asrwt>0</asrwt>
<pdfrwt beam="1">  1        2 0.99226656E+00 0.14903421E+02</pdfrwt>
<pdfrwt beam="2">  1       -2 0.98661560E+00 0.14903421E+02</pdfrwt>
<totfact> 0.35644311E-13</totfact>
</mgrwt>
</event>
<event>
 4    1 -0.5245809E-019  0.1499950E+02  0.7818608E-02  0.1868084E+00
          2   -1    0    0  501    0  0.00000000000E+00  0.00000000000E+00  0.12012768558E+03  0.12012768561E+03  0.25500000000E-02 0.  1.
         -2   -1    0    0    0  501 -0.00000000000E+00 -0.00000000000E+00 -0.46821719816E+00  0.46822414200E+00  0.25500000000E-02 0. -1.
         31    1    1    2    0    0  0.68103239109E+00 -0.78531279609E-01  0.64359115747E+02  0.64792165253E+02  0.74470750000E+01 0.  1.
        -31    1    1    2    0    0 -0.68103239109E+00  0.78531279609E-01  0.55300352637E+02  0.55803744499E+02  0.74470750000E+01 0. -1.
<mgrwt>
<rscale>  0 0.14999502E+02</rscale>
<asrwt>0</asrwt>
<pdfrwt beam="1">  1        2 0.99717136E+00 0.14999502E+02</pdfrwt>
<pdfrwt beam="2">  1       -2 0.99446224E+00 0.14999502E+02</pdfrwt>
<totfact>-0.84504489E-14</totfact>
</mgrwt>
</event>
<event>
 4    1 -0.5245809E-019  0.1490720E+02  0.7818608E-02  0.1870913E+00
         -2   -1    0    0    0  501 -0.00000000000E+00  0.00000000000E+00  0.12022806884E+03  0.12022806887E+03  0.25500000000E-02 0. -1.
          2   -1    0    0  501    0  0.00000000000E+00 -0.00000000000E+00 -0.46208642701E+00  0.46209346298E+00  0.25500000000E-02 0.  1.
         31    1    1    2    0    0  0.14239404822E+00  0.19022798246E+00  0.61518245707E+02  0.61967813772E+02  0.74470750000E+01 0. -1.
        -31    1    1    2    0    0 -0.14239404822E+00 -0.19022798246E+00  0.58247736704E+02  0.58722348556E+02  0.74470750000E+01 0.  1.
<mgrwt>
<rscale>  0 0.14907204E+02</rscale>
<asrwt>0</asrwt>
<pdfrwt beam="2">  1        2 0.98149412E+00 0.14907204E+02</pdfrwt>
<pdfrwt beam="1">  1       -2 0.99795070E+00 0.14907204E+02</pdfrwt>
<totfact>-0.37838663E-13</totfact>
</mgrwt>
</event>
<event>
 4    1  0.5245809E-019  0.1492739E+02  0.7818608E-02  0.1870292E+00
          2   -1    0    0  501    0  0.00000000000E+00  0.00000000000E+00  0.12035410627E+03  0.12035410630E+03  0.25500000000E-02 0.  1.
         -2   -1    0    0    0  501 -0.00000000000E+00 -0.00000000000E+00 -0.46285349422E+00  0.46286051853E+00  0.25500000000E-02 0. -1.
         31    1    1    2    0    0 -0.79825678312E-01 -0.45687088357E+00  0.58481697059E+02  0.58955770881E+02  0.74470750000E+01 0.  1.
        -31    1    1    2    0    0  0.79825678312E-01  0.45687088357E+00  0.61409555719E+02  0.61861195937E+02  0.74470750000E+01 0.  1.
<mgrwt>
<rscale>  0 0.14927390E+02</rscale>
<asrwt>0</asrwt>
<pdfrwt beam="1">  1        2 0.99899921E+00 0.14927390E+02</pdfrwt>
<pdfrwt beam="2">  1       -2 0.98312108E+00 0.14927390E+02</pdfrwt>
<totfact> 0.23803468E-13</totfact>
</mgrwt>
</event>
<event>
 4    1 -0.5245809E-019  0.1498142E+02  0.7818608E-02  0.1868636E+00
          2   -1    0    0  501    0  0.00000000000E+00  0.00000000000E+00  0.11989094749E+03  0.11989094752E+03  0.25500000000E-02 0. -1.
         -2   -1    0    0    0  501 -0.00000000000E+00 -0.00000000000E+00 -0.46801124052E+00  0.46801818741E+00  0.25500000000E-02 0.  1.
         31    1    1    2    0    0 -0.21929851527E+00 -0.52876260792E+00  0.64285302037E+02  0.64717746143E+02  0.74470750000E+01 0. -1.
        -31    1    1    2    0    0  0.21929851527E+00  0.52876260792E+00  0.55137634213E+02  0.55641219563E+02  0.74470750000E+01 0.  1.
<mgrwt>
<rscale>  0 0.14981419E+02</rscale>
<asrwt>0</asrwt>
<pdfrwt beam="1">  1        2 0.99521214E+00 0.14981419E+02</pdfrwt>
<pdfrwt beam="2">  1       -2 0.99401888E+00 0.14981419E+02</pdfrwt>
<totfact>-0.11424686E-13</totfact>
</mgrwt>
</event>
<event>
 4    1  0.5245809E-019  0.1492071E+02  0.7818608E-02  0.1870498E+00
          2   -1    0    0  501    0  0.00000000000E+00  0.00000000000E+00  0.12002185769E+03  0.12002185772E+03  0.25500000000E-02 0. -1.
         -2   -1    0    0    0  501 -0.00000000000E+00 -0.00000000000E+00 -0.46371928546E+00  0.46372629666E+00  0.25500000000E-02 0.  1.
         31    1    1    2    0    0 -0.10244993655E+00  0.18683401477E-01  0.56286170114E+02  0.56776779736E+02  0.74470750000E+01 0.  1.
        -31    1    1    2    0    0  0.10244993655E+00 -0.18683401477E-01  0.63271968294E+02  0.63708804281E+02  0.74470750000E+01 0. -1.
<mgrwt>
<rscale>  0 0.14920707E+02</rscale>
<asrwt>0</asrwt>
<pdfrwt beam="1">  1        2 0.99625911E+00 0.14920707E+02</pdfrwt>
<pdfrwt beam="2">  1       -2 0.98494251E+00 0.14920707E+02</pdfrwt>
<totfact> 0.41895580E-13</totfact>
</mgrwt>
</event>
<event>
 4    1  0.5245809E-019  0.1492811E+02  0.7818608E-02  0.1870270E+00
          2   -1    0    0  501    0  0.00000000000E+00  0.00000000000E+00  0.12004868494E+03  0.12004868496E+03  0.25500000000E-02 0. -1.
         -2   -1    0    0    0  501 -0.00000000000E+00 -0.00000000000E+00 -0.46407568173E+00  0.46408268754E+00  0.25500000000E-02 0.  1.
         31    1    1    2    0    0  0.19317554081E+00 -0.91646098213E-01  0.56115313448E+02  0.56607711888E+02  0.74470750000E+01 0.  1.
        -31    1    1    2    0    0 -0.19317554081E+00  0.91646098213E-01  0.63469295808E+02  0.63905055764E+02  0.74470750000E+01 0. -1.
<mgrwt>
<rscale>  0 0.14928108E+02</rscale>
<asrwt>0</asrwt>
<pdfrwt beam="1">  1        2 0.99648388E+00 0.14928108E+02</pdfrwt>
<pdfrwt beam="2">  1       -2 0.98569742E+00 0.14928108E+02</pdfrwt>
<totfact> 0.32213117E-13</totfact>
</mgrwt>
</event>
<event>
 4    1 -0.5245809E-019  0.1498502E+02  0.7818608E-02  0.1868526E+00
          2   -1    0    0  501    0  0.00000000000E+00  0.00000000000E+00  0.12002787743E+03  0.12002787746E+03  0.25500000000E-02 0. -1.
         -2   -1    0    0    0  501 -0.00000000000E+00 -0.00000000000E+00 -0.46770188055E+00  0.46770883205E+00  0.25500000000E-02 0.  1.
         31    1    1    2    0    0  0.39607515631E+00 -0.62402255833E+00  0.56853329048E+02  0.57343754931E+02  0.74470750000E+01 0.  1.
        -31    1    1    2    0    0 -0.39607515631E+00  0.62402255833E+00  0.62706846501E+02  0.63151831357E+02  0.74470750000E+01 0.  1.
<mgrwt>
<rscale>  0 0.14985017E+02</rscale>
<asrwt>0</asrwt>
<pdfrwt beam="1">  1        2 0.99634181E+00 0.14985017E+02</pdfrwt>
<pdfrwt beam="2">  1       -2 0.99336879E+00 0.14985017E+02</pdfrwt>
<totfact>-0.91976185E-14</totfact>
</mgrwt>
</event>
<event>
 4    1 -0.5245809E-019  0.1498401E+02  0.7818608E-02  0.1868557E+00
         -2   -1    0    0    0  501 -0.00000000000E+00  0.00000000000E+00  0.12013356988E+03  0.12013356991E+03  0.25500000000E-02 0. -1.
          2   -1    0    0  501    0  0.00000000000E+00 -0.00000000000E+00 -0.46722731012E+00  0.46723426867E+00  0.25500000000E-02 0.  1.
         31    1    1    2    0    0  0.55143277413E+00 -0.37623779340E+00  0.56010730929E+02  0.56507579476E+02  0.74470750000E+01 0.  1.
        -31    1    1    2    0    0 -0.55143277413E+00  0.37623779340E+00  0.63655611645E+02  0.64093224703E+02  0.74470750000E+01 0. -1.
<mgrwt>
<rscale>  0 0.14984006E+02</rscale>
<asrwt>0</asrwt>
<pdfrwt beam="2">  1        2 0.99236815E+00 0.14984006E+02</pdfrwt>
<pdfrwt beam="1">  1       -2 0.99721183E+00 0.14984006E+02</pdfrwt>
<totfact>-0.11244001E-13</totfact>
</mgrwt>
</event>
<event>
 4    1  0.5245809E-019  0.1491533E+02  0.7818608E-02  0.1870663E+00
         -2   -1    0    0    0  501 -0.00000000000E+00  0.00000000000E+00  0.11875978081E+03  0.11875978084E+03  0.25500000000E-02 0. -1.
          2   -1    0    0  501    0  0.00000000000E+00 -0.00000000000E+00 -0.46830992219E+00  0.46831686466E+00  0.25500000000E-02 0.  1.
         31    1    1    2    0    0  0.42870038954E-01 -0.24339168027E+00  0.56658746256E+02  0.57146596843E+02  0.74470750000E+01 0.  1.
        -31    1    1    2    0    0 -0.42870038954E-01  0.24339168027E+00  0.61632724636E+02  0.62081500864E+02  0.74470750000E+01 0. -1.
<mgrwt>
<rscale>  0 0.14915334E+02</rscale>
<asrwt>0</asrwt>
<pdfrwt beam="2">  1        2 0.99461392E+00 0.14915334E+02</pdfrwt>
<pdfrwt beam="1">  1       -2 0.98586133E+00 0.14915334E+02</pdfrwt>
<totfact> 0.38771300E-13</totfact>
</mgrwt>
</event>
<event>
 4    1  0.5245809E-019  0.1489764E+02  0.7818608E-02  0.1871208E+00
         -2   -1    0    0    0  501 -0.00000000000E+00  0.00000000000E+00  0.11907127206E+03  0.11907127209E+03  0.25500000000E-02 0. -1.
          2   -1    0    0  501    0  0.00000000000E+00 -0.00000000000E+00 -0.46597749773E+00  0.46598447495E+00  0.25500000000E-02 0.  1.
         31    1    1    2    0    0  0.11830537290E+00  0.56400456270E-01  0.60057441592E+02  0.60517537903E+02  0.74470750000E+01 0. -1.
        -31    1    1    2    0    0 -0.11830537290E+00 -0.56400456270E-01  0.58547852975E+02  0.59019718664E+02  0.74470750000E+01 0.  1.
<mgrwt>
<rscale>  0 0.14897644E+02</rscale>
<asrwt>0</asrwt>
<pdfrwt beam="2">  1        2 0.98968979E+00 0.14897644E+02</pdfrwt>
<pdfrwt beam="1">  1       -2 0.98841767E+00 0.14897644E+02</pdfrwt>
<totfact> 0.17981894E-13</totfact>
</mgrwt>
</event>
<event>
 4    1 -0.5245809E-019  0.1496796E+02  0.7818608E-02  0.1869048E+00
          2   -1    0    0  501    0  0.00000000000E+00  0.00000000000E+00  0.11984225161E+03  0.11984225163E+03  0.25500000000E-02 0. -1.
         -2   -1    0    0    0  501 -0.00000000000E+00 -0.00000000000E+00 -0.46736027133E+00  0.46736722790E+00  0.25500000000E-02 0.  1.
         31    1    1    2    0    0 -0.21382386511E+00 -0.68817520395E+00  0.58256455080E+02  0.58734936710E+02  0.74470750000E+01 0.  1.
        -31    1    1    2    0    0  0.21382386511E+00  0.68817520395E+00  0.61118436254E+02  0.61574682151E+02  0.74470750000E+01 0.  1.
<mgrwt>
<rscale>  0 0.14967956E+02</rscale>
<asrwt>0</asrwt>
<pdfrwt beam="1">  1        2 0.99480411E+00 0.14967956E+02</pdfrwt>
<pdfrwt beam="2">  1       -2 0.99264010E+00 0.14967956E+02</pdfrwt>
<totfact>-0.97864172E-14</totfact>
</mgrwt>
</event>
<event>
 4    1 -0.5245809E-019  0.1498925E+02  0.7818608E-02  0.1868397E+00
         -2   -1    0    0    0  501 -0.00000000000E+00  0.00000000000E+00  0.11961886834E+03  0.11961886837E+03  0.25500000000E-02 0. -1.
          2   -1    0    0  501    0  0.00000000000E+00 -0.00000000000E+00 -0.46956614472E+00  0.46957306862E+00  0.25500000000E-02 0.  1.
         31    1    1    2    0    0 -0.75387081857E+00 -0.37485588725E+00  0.59251789748E+02  0.59723884272E+02  0.74470750000E+01 0.  1.
        -31    1    1    2    0    0  0.75387081857E+00  0.37485588725E+00  0.59897512450E+02  0.60364557167E+02  0.74470750000E+01 0.  1.
<mgrwt>
<rscale>  0 0.14989248E+02</rscale>
<asrwt>0</asrwt>
<pdfrwt beam="2">  1        2 0.99729959E+00 0.14989248E+02</pdfrwt>
<pdfrwt beam="1">  1       -2 0.99297526E+00 0.14989248E+02</pdfrwt>
<totfact>-0.70717362E-14</totfact>
</mgrwt>
</event>
<event>
 4    1 -0.5245809E-019  0.1494223E+02  0.7818608E-02  0.1869836E+00
         -2   -1    0    0    0  501 -0.00000000000E+00  0.00000000000E+00  0.11961048982E+03  0.11961048985E+03  0.25500000000E-02 0.  1.
          2   -1    0    0  501    0  0.00000000000E+00 -0.00000000000E+00 -0.46665784695E+00  0.46666481399E+00  0.25500000000E-02 0. -1.
         31    1    1    2    0    0 -0.12509899322E+00 -0.28531671314E+00  0.63682218446E+02  0.64116931677E+02  0.74470750000E+01 0.  1.
        -31    1    1    2    0    0  0.12509899322E+00  0.28531671314E+00  0.55461613529E+02  0.55960222986E+02  0.74470750000E+01 0.  1.
<mgrwt>
<rscale>  0 0.14942235E+02</rscale>
<asrwt>0</asrwt>
<pdfrwt beam="2">  1        2 0.99114656E+00 0.14942235E+02</pdfrwt>
<pdfrwt beam="1">  1       -2 0.99288193E+00 0.14942235E+02</pdfrwt>
<totfact>-0.13705811E-13</totfact>
</mgrwt>
</event>
<event>
 4    1  0.5245809E-019  0.1492316E+02  0.7818608E-02  0.1870422E+00
          2   -1    0    0  501    0  0.00000000000E+00  0.00000000000E+00  0.12001746594E+03  0.12001746597E+03  0.25500000000E-02 0. -1.
         -2   -1    0    0    0  501 -0.00000000000E+00 -0.00000000000E+00 -0.46388899480E+00  0.46389600343E+00  0.25500000000E-02 0.  1.
         31    1    1    2    0    0 -0.14431964618E+00 -0.94131648543E-01  0.63264204109E+02  0.63701241248E+02  0.74470750000E+01 0. -1.
        -31    1    1    2    0    0  0.14431964618E+00  0.94131648543E-01  0.56289372841E+02  0.56780120727E+02  0.74470750000E+01 0.  1.
<mgrwt>
<rscale>  0 0.14923164E+02</rscale>
<asrwt>0</asrwt>
<pdfrwt beam="1">  1        2 0.99622420E+00 0.14923164E+02</pdfrwt>
<pdfrwt beam="2">  1       -2 0.98530144E+00 0.14923164E+02</pdfrwt>
<totfact> 0.37991425E-13</totfact>
</mgrwt>
</event>
<event>
 4    1 -0.5245809E-019  0.1492534E+02  0.7818608E-02  0.1870355E+00
         -2   -1    0    0    0  501 -0.00000000000E+00  0.00000000000E+00  0.12024101566E+03  0.12024101569E+03  0.25500000000E-02 0. -1.
          2   -1    0    0  501    0  0.00000000000E+00 -0.00000000000E+00 -0.46316167683E+00  0.46316869647E+00  0.25500000000E-02 0.  1.
         31    1    1    2    0    0 -0.25472203439E+00 -0.40932687696E+00  0.59808926453E+02  0.60272705608E+02  0.74470750000E+01 0.  1.
        -31    1    1    2    0    0  0.25472203439E+00  0.40932687696E+00  0.59968927531E+02  0.60431478776E+02  0.74470750000E+01 0. -1.
<mgrwt>
<rscale>  0 0.14925342E+02</rscale>
<asrwt>0</asrwt>
<pdfrwt beam="2">  1        2 0.98376961E+00 0.14925342E+02</pdfrwt>
<pdfrwt beam="1">  1       -2 0.99806665E+00 0.14925342E+02</pdfrwt>
<totfact>-0.24593970E-13</totfact>
</mgrwt>
</event>
<event>
 4    1 -0.5245809E-019  0.1492438E+02  0.7818608E-02  0.1870385E+00
          2   -1    0    0  501    0  0.00000000000E+00  0.00000000000E+00  0.11840069039E+03  0.11840069042E+03  0.25500000000E-02 0. -1.
         -2   -1    0    0    0  501 -0.00000000000E+00 -0.00000000000E+00 -0.47030008476E+00  0.47030699785E+00  0.25500000000E-02 0.  1.
         31    1    1    2    0    0 -0.21858160984E+00  0.20984677680E+00  0.61875678873E+02  0.62322952238E+02  0.74470750000E+01 0.  1.
        -31    1    1    2    0    0  0.21858160984E+00 -0.20984677680E+00  0.56054711436E+02  0.56548045181E+02  0.74470750000E+01 0.  1.
<mgrwt>
<rscale>  0 0.14924378E+02</rscale>
<asrwt>0</asrwt>
<pdfrwt beam="1">  1        2 0.98290858E+00 0.14924378E+02</pdfrwt>
<pdfrwt beam="2">  1       -2 0.99881202E+00 0.14924378E+02</pdfrwt>
<totfact>-0.18693536E-13</totfact>
</mgrwt>
</event>
<event>
 4    1 -0.5245809E-019  0.1491086E+02  0.7818608E-02  0.1870801E+00
         -2   -1    0    0    0  501 -0.00000000000E+00  0.00000000000E+00  0.11987357681E+03  0.11987357684E+03  0.25500000000E-02 0. -1.
          2   -1    0    0  501    0  0.00000000000E+00 -0.00000000000E+00 -0.46368004732E+00  0.46368705911E+00  0.25500000000E-02 0.  1.
         31    1    1    2    0    0  0.31162045127E+00 -0.13429700620E+00  0.58924980722E+02  0.59394675032E+02  0.74470750000E+01 0. -1.
        -31    1    1    2    0    0 -0.31162045127E+00  0.13429700620E+00  0.60484916039E+02  0.60942588862E+02  0.74470750000E+01 0. -1.
<mgrwt>
<rscale>  0 0.14910856E+02</rscale>
<asrwt>0</asrwt>
<pdfrwt beam="2">  1        2 0.98485480E+00 0.14910856E+02</pdfrwt>
<pdfrwt beam="1">  1       -2 0.99503269E+00 0.14910856E+02</pdfrwt>
<totfact>-0.35515180E-13</totfact>
</mgrwt>
</event>
<event>
 4    1 -0.5245809E-019  0.1496493E+02  0.7818608E-02  0.1869140E+00
         -2   -1    0    0    0  501 -0.00000000000E+00  0.00000000000E+00  0.11976101401E+03  0.11976101404E+03  0.25500000000E-02 0. -1.
          2   -1    0    0  501    0  0.00000000000E+00 -0.00000000000E+00 -0.46748847734E+00  0.46749543200E+00  0.25500000000E-02 0.  1.
         31    1    1    2    0    0 -0.50970938513E+00  0.49394652731E+00  0.60906872069E+02  0.61364564515E+02  0.74470750000E+01 0. -1.
        -31    1    1    2    0    0  0.50970938513E+00 -0.49394652731E+00  0.58386653468E+02  0.58863944959E+02  0.74470750000E+01 0. -1.
<mgrwt>
<rscale>  0 0.14964934E+02</rscale>
<asrwt>0</asrwt>
<pdfrwt beam="2">  1        2 0.99290872E+00 0.14964934E+02</pdfrwt>
<pdfrwt beam="1">  1       -2 0.99413344E+00 0.14964934E+02</pdfrwt>
<totfact>-0.13984977E-13</totfact>
</mgrwt>
</event>
<event>
 4    1 -0.5245809E-019  0.1496972E+02  0.7818608E-02  0.1868994E+00
         -2   -1    0    0    0  501 -0.00000000000E+00  0.00000000000E+00  0.11969619319E+03  0.11969619322E+03  0.25500000000E-02 0.  1.
          2   -1    0    0  501    0  0.00000000000E+00 -0.00000000000E+00 -0.46804096914E+00  0.46804791560E+00  0.25500000000E-02 0. -1.
         31    1    1    2    0    0  0.18599206217E+00 -0.61212577261E+00  0.56454555871E+02  0.56947213239E+02  0.74470750000E+01 0. -1.
        -31    1    1    2    0    0 -0.18599206217E+00  0.61212577261E+00  0.62773596353E+02  0.63217027897E+02  0.74470750000E+01 0. -1.
<mgrwt>
<rscale>  0 0.14969722E+02</rscale>
<asrwt>0</asrwt>
<pdfrwt beam="2">  1        2 0.99407549E+00 0.14969722E+02</pdfrwt>
<pdfrwt beam="1">  1       -2 0.99360202E+00 0.14969722E+02</pdfrwt>
<totfact>-0.12272945E-13</totfact>
</mgrwt>
</event>
<event>
 4    1  0.5245809E-019  0.1490829E+02  0.7818608E-02  0.1870880E+00
          2   -1    0    0  501    0  0.00000000000E+00  0.00000000000E+00  0.11925615864E+03  0.11925615867E+03  0.25500000000E-02 0. -1.
         -2   -1    0    0    0  501 -0.00000000000E+00 -0.00000000000E+00 -0.46592002551E+00  0.46592700358E+00  0.25500000000E-02 0.  1.
         31    1    1    2    0    0  0.17223942250E+00 -0.26667563767E+00  0.59936421156E+02  0.60398131506E+02  0.74470750000E+01 0. -1.
        -31    1    1    2    0    0 -0.17223942250E+00  0.26667563767E+00  0.58853817457E+02  0.59323954164E+02  0.74470750000E+01 0.  1.
<mgrwt>
<rscale>  0 0.14908287E+02</rscale>
<asrwt>0</asrwt>
<pdfrwt beam="1">  1        2 0.98994597E+00 0.14908287E+02</pdfrwt>
<pdfrwt beam="2">  1       -2 0.98957418E+00 0.14908287E+02</pdfrwt>
<totfact> 0.50983041E-14</totfact>
</mgrwt>
</event>
<event>
 4    1 -0.5245809E-019  0.1491612E+02  0.7818608E-02  0.1870639E+00
         -2   -1    0    0    0  501 -0.00000000000E+00  0.00000000000E+00  0.12033151103E+03  0.12033151106E+03  0.25500000000E-02 0. -1.
          2   -1    0    0  501    0  0.00000000000E+00 -0.00000000000E+00 -0.46224149182E+00  0.46224852543E+00  0.25500000000E-02 0.  1.
         31    1    1    2    0    0  0.95526920092E-01  0.38416182742E+00  0.59256516930E+02  0.59723951899E+02  0.74470750000E+01 0.  1.
        -31    1    1    2    0    0 -0.95526920092E-01 -0.38416182742E+00  0.60612752612E+02  0.61069807687E+02  0.74470750000E+01 0.  1.
<mgrwt>
<rscale>  0 0.14916118E+02</rscale>
<asrwt>0</asrwt>
<pdfrwt beam="2">  1        2 0.98182545E+00 0.14916118E+02</pdfrwt>
<pdfrwt beam="1">  1       -2 0.99880732E+00 0.14916118E+02</pdfrwt>
<totfact>-0.22528615E-13</totfact>
</mgrwt>
</event>
<event>
 4    1 -0.5245809E-019  0.1497992E+02  0.7818608E-02  0.1868682E+00
         -2   -1    0    0    0  501 -0.00000000000E+00  0.00000000000E+00  0.11957046686E+03  0.11957046689E+03  0.25500000000E-02 0.  1.
          2   -1    0    0  501    0  0.00000000000E+00 -0.00000000000E+00 -0.46917151148E+00  0.46917844120E+00  0.25500000000E-02 0. -1.
         31    1    1    2    0    0  0.46284046651E+00 -0.39036846323E+00  0.55356511700E+02  0.55858472253E+02  0.74470750000E+01 0.  1.
        -31    1    1    2    0    0 -0.46284046651E+00  0.39036846323E+00  0.63744783653E+02  0.64181173080E+02  0.74470750000E+01 0.  1.
<mgrwt>
<rscale>  0 0.14979916E+02</rscale>
<asrwt>0</asrwt>
<pdfrwt beam="2">  1        2 0.99646315E+00 0.14979916E+02</pdfrwt>
<pdfrwt beam="1">  1       -2 0.99257178E+00 0.14979916E+02</pdfrwt>
<totfact>-0.77507290E-14</totfact>
</mgrwt>
</event>
<event>
 4    1  0.5245809E-019  0.1493868E+02  0.7818608E-02  0.1869945E+00
         -2   -1    0    0    0  501 -0.00000000000E+00  0.00000000000E+00  0.11859352765E+03  0.11859352768E+03  0.25500000000E-02 0.  1.
          2   -1    0    0  501    0  0.00000000000E+00 -0.00000000000E+00 -0.47043580223E+00  0.47044271333E+00  0.25500000000E-02 0. -1.
         31    1    1    2    0    0 -0.91520412770E-02 -0.22254783460E+00  0.54825209948E+02  0.55329125994E+02  0.74470750000E+01 0. -1.
        -31    1    1    2    0    0  0.91520412770E-02  0.22254783460E+00  0.63297881900E+02  0.63734844398E+02  0.74470750000E+01 0.  1.
<mgrwt>
<rscale>  0 0.14938682E+02</rscale>
<asrwt>0</asrwt>
<pdfrwt beam="2">  1        2 0.99910554E+00 0.14938682E+02</pdfrwt>
<pdfrwt beam="1">  1       -2 0.98450421E+00 0.14938682E+02</pdfrwt>
<totfact> 0.15410363E-13</totfact>
</mgrwt>
</event>
<event>
 4    1  0.5245809E-019  0.1493732E+02  0.7818608E-02  0.1869987E+00
         -2   -1    0    0    0  501 -0.00000000000E+00  0.00000000000E+00  0.11874737310E+03  0.11874737313E+03  0.25500000000E-02 0.  1.
          2   -1    0    0  501    0  0.00000000000E+00 -0.00000000000E+00 -0.46974079204E+00  0.46974771335E+00  0.25500000000E-02 0. -1.
         31    1    1    2    0    0 -0.39213004179E+00  0.21617092904E+00  0.56357094835E+02  0.56848760410E+02  0.74470750000E+01 0.  1.
        -31    1    1    2    0    0  0.39213004179E+00 -0.21617092904E+00  0.61920537474E+02  0.62368360432E+02  0.74470750000E+01 0. -1.
<mgrwt>
<rscale>  0 0.14937322E+02</rscale>
<asrwt>0</asrwt>
<pdfrwt beam="2">  1        2 0.99764043E+00 0.14937322E+02</pdfrwt>
<pdfrwt beam="1">  1       -2 0.98577057E+00 0.14937322E+02</pdfrwt>
<totfact> 0.23945989E-13</totfact>
</mgrwt>
</event>
<event>
 4    1 -0.5245809E-019  0.1496385E+02  0.7818608E-02  0.1869174E+00
         -2   -1    0    0    0  501 -0.00000000000E+00  0.00000000000E+00  0.12029177565E+03  0.12029177568E+03  0.25500000000E-02 0. -1.
          2   -1    0    0  501    0  0.00000000000E+00 -0.00000000000E+00 -0.46535824644E+00  0.46536523294E+00  0.25500000000E-02 0.  1.
         31    1    1    2    0    0  0.15393642753E+00  0.30995067684E+00  0.54806142378E+02  0.55310866331E+02  0.74470750000E+01 0.  1.
        -31    1    1    2    0    0 -0.15393642753E+00 -0.30995067684E+00  0.65020275029E+02  0.65446274583E+02  0.74470750000E+01 0. -1.
<mgrwt>
<rscale>  0 0.14963849E+02</rscale>
<asrwt>0</asrwt>
<pdfrwt beam="2">  1        2 0.98841874E+00 0.14963849E+02</pdfrwt>
<pdfrwt beam="1">  1       -2 0.99850453E+00 0.14963849E+02</pdfrwt>
<totfact>-0.98716836E-14</totfact>
</mgrwt>
</event>
<event>
 4    1  0.5245809E-019  0.1490597E+02  0.7818608E-02  0.1870951E+00
          2   -1    0    0  501    0  0.00000000000E+00  0.00000000000E+00  0.11995680098E+03  0.11995680100E+03  0.25500000000E-02 0. -1.
         -2   -1    0    0    0  501 -0.00000000000E+00 -0.00000000000E+00 -0.46305482805E+00  0.46306184931E+00  0.25500000000E-02 0.  1.
         31    1    1    2    0    0 -0.15380839585E+00  0.20644556559E+00  0.58554148978E+02  0.59026380249E+02  0.74470750000E+01 0. -1.
        -31    1    1    2    0    0  0.15380839585E+00 -0.20644556559E+00  0.60939597172E+02  0.61393482605E+02  0.74470750000E+01 0. -1.
<mgrwt>
<rscale>  0 0.14905972E+02</rscale>
<asrwt>0</asrwt>
<pdfrwt beam="1">  1        2 0.99571568E+00 0.14905972E+02</pdfrwt>
<pdfrwt beam="2">  1       -2 0.98353459E+00 0.14905972E+02</pdfrwt>
<totfact> 0.64932947E-13</totfact>
</mgrwt>
</event>
<event>
 4    1 -0.5245809E-019  0.1490587E+02  0.7818608E-02  0.1870955E+00
         -2   -1    0    0    0  501 -0.00000000000E+00  0.00000000000E+00  0.11982437390E+03  0.11982437393E+03  0.25500000000E-02 0. -1.
          2   -1    0    0  501    0  0.00000000000E+00 -0.00000000000E+00 -0.46356028285E+00  0.46356729645E+00  0.25500000000E-02 0.  1.
         31    1    1    2    0    0  0.20170582179E+00  0.64443905202E-01  0.61343650922E+02  0.61794395156E+02  0.74470750000E+01 0. -1.
        -31    1    1    2    0    0 -0.20170582179E+00 -0.64443905202E-01  0.58017162694E+02  0.58493546066E+02  0.74470750000E+01 0.  1.
<mgrwt>
<rscale>  0 0.14905871E+02</rscale>
<asrwt>0</asrwt>
<pdfrwt beam="2">  1        2 0.98459985E+00 0.14905871E+02</pdfrwt>
<pdfrwt beam="1">  1       -2 0.99462486E+00 0.14905871E+02</pdfrwt>
<totfact>-0.37134480E-13</totfact>
</mgrwt>
</event>
<event>
 4    1 -0.5245809E-019  0.1496721E+02  0.7818608E-02  0.1869071E+00
         -2   -1    0    0    0  501 -0.00000000000E+00  0.00000000000E+00  0.11969580689E+03  0.11969580692E+03  0.25500000000E-02 0. -1.
          2   -1    0    0  501    0  0.00000000000E+00 -0.00000000000E+00 -0.46788567445E+00  0.46789262321E+00  0.25500000000E-02 0.  1.
         31    1    1    2    0    0 -0.16491852400E+00  0.71606456140E+00  0.59018563079E+02  0.59491088917E+02  0.74470750000E+01 0. -1.
        -31    1    1    2    0    0  0.16491852400E+00 -0.71606456140E+00  0.60209358138E+02  0.60672610625E+02  0.74470750000E+01 0. -1.
<mgrwt>
<rscale>  0 0.14967214E+02</rscale>
<asrwt>0</asrwt>
<pdfrwt beam="2">  1        2 0.99374693E+00 0.14967214E+02</pdfrwt>
<pdfrwt beam="1">  1       -2 0.99359754E+00 0.14967214E+02</pdfrwt>
<totfact>-0.12592402E-13</totfact>
</mgrwt>
</event>
<event>
 4    1 -0.5245809E-019  0.1499621E+02  0.7818608E-02  0.1868184E+00
         -2   -1    0    0    0  501 -0.00000000000E+00  0.00000000000E+00  0.12025445058E+03  0.12025445061E+03  0.25500000000E-02 0.  1.
          2   -1    0    0  501    0  0.00000000000E+00 -0.00000000000E+00 -0.46751853061E+00  0.46752548483E+00  0.25500000000E-02 0. -1.
         31    1    1    2    0    0 -0.70354787629E+00  0.49463911362E+00  0.61115180385E+02  0.61573239699E+02  0.74470750000E+01 0. -1.
        -31    1    1    2    0    0  0.70354787629E+00 -0.49463911362E+00  0.58671751666E+02  0.59148736394E+02  0.74470750000E+01 0. -1.
<mgrwt>
<rscale>  0 0.14996214E+02</rscale>
<asrwt>0</asrwt>
<pdfrwt beam="2">  1        2 0.99298815E+00 0.14996214E+02</pdfrwt>
<pdfrwt beam="1">  1       -2 0.99821376E+00 0.14996214E+02</pdfrwt>
<totfact>-0.76411531E-14</totfact>
</mgrwt>
</event>
<event>
 4    1 -0.5245809E-019  0.1491475E+02  0.7818608E-02  0.1870681E+00
          2   -1    0    0  501    0  0.00000000000E+00  0.00000000000E+00  0.11894935720E+03  0.11894935723E+03  0.25500000000E-02 0.  1.
         -2   -1    0    0    0  501 -0.00000000000E+00 -0.00000000000E+00 -0.46752676049E+00  0.46753371458E+00  0.25500000000E-02 0. -1.
         31    1    1    2    0    0  0.33006878418E+00  0.21083962595E+00  0.59160977763E+02  0.59629133942E+02  0.74470750000E+01 0.  1.
        -31    1    1    2    0    0 -0.33006878418E+00 -0.21083962595E+00  0.59320852676E+02  0.59787757000E+02  0.74470750000E+01 0. -1.
<mgrwt>
<rscale>  0 0.14914748E+02</rscale>
<asrwt>0</asrwt>
<pdfrwt beam="1">  1        2 0.98742241E+00 0.14914748E+02</pdfrwt>
<pdfrwt beam="2">  1       -2 0.99296337E+00 0.14914748E+02</pdfrwt>
<totfact>-0.20769999E-13</totfact>
</mgrwt>
</event>
<event>
 4    1 -0.5245809E-019  0.1501570E+02  0.7818608E-02  0.1867590E+00
         -2   -1    0    0    0  501 -0.00000000000E+00  0.00000000000E+00  0.12032773995E+03  0.12032773998E+03  0.25500000000E-02 0. -1.
          2   -1    0    0  501    0  0.00000000000E+00 -0.00000000000E+00 -0.46844884373E+00  0.46845578414E+00  0.25500000000E-02 0.  1.
         31    1    1    2    0    0 -0.82286904306E+00  0.47977228070E+00  0.59608814907E+02  0.60079755622E+02  0.74470750000E+01 0. -1.
        -31    1    1    2    0    0  0.82286904306E+00 -0.47977228070E+00  0.60250476202E+02  0.60716440142E+02  0.74470750000E+01 0.  1.
<mgrwt>
<rscale>  0 0.15015700E+02</rscale>
<asrwt>0</asrwt>
<pdfrwt beam="2">  1        2 0.99495874E+00 0.15015700E+02</pdfrwt>
<pdfrwt beam="1">  1       -2 0.99882746E+00 0.15015700E+02</pdfrwt>
<totfact>-0.45035033E-14</totfact>
</mgrwt>
</event>
<event>
 4    1  0.5245809E-019  0.1491523E+02  0.7818608E-02  0.1870666E+00
         -2   -1    0    0    0  501 -0.00000000000E+00  0.00000000000E+00  0.11871907663E+03  0.11871907666E+03  0.25500000000E-02 0. -1.
          2   -1    0    0  501    0  0.00000000000E+00 -0.00000000000E+00 -0.46846395206E+00  0.46847089225E+00  0.25500000000E-02 0.  1.
         31    1    1    2    0    0 -0.30423095930E+00 -0.15861424876E+00  0.60711112128E+02  0.61167113523E+02  0.74470750000E+01 0. -1.
        -31    1    1    2    0    0  0.30423095930E+00  0.15861424876E+00  0.57539500550E+02  0.58020434025E+02  0.74470750000E+01 0. -1.
<mgrwt>
<rscale>  0 0.14915230E+02</rscale>
<asrwt>0</asrwt>
<pdfrwt beam="2">  1        2 0.99493843E+00 0.14915230E+02</pdfrwt>
<pdfrwt beam="1">  1       -2 0.98552603E+00 0.14915230E+02</pdfrwt>
<totfact> 0.41780200E-13</totfact>
</mgrwt>
</event>
<event>
 4    1 -0.5245809E-019  0.1497891E+02  0.7818608E-02  0.1868713E+00
         -2   -1    0    0    0  501 -0.00000000000E+00  0.00000000000E+00  0.11955761370E+03  0.11955761373E+03  0.25500000000E-02 0. -1.
          2   -1    0    0  501    0  0.00000000000E+00 -0.00000000000E+00 -0.46915894377E+00  0.46916587367E+00  0.25500000000E-02 0.  1.
         31    1    1    2    0    0  0.69229883203E+00 -0.19258865921E+00  0.56807478097E+02  0.57298035410E+02  0.74470750000E+01 0. -1.
        -31    1    1    2    0    0 -0.69229883203E+00  0.19258865921E+00  0.62280976662E+02  0.62728744193E+02  0.74470750000E+01 0. -1.
<mgrwt>
<rscale>  0 0.14978911E+02</rscale>
<asrwt>0</asrwt>
<pdfrwt beam="2">  1        2 0.99643615E+00 0.14978911E+02</pdfrwt>
<pdfrwt beam="1">  1       -2 0.99246539E+00 0.14978911E+02</pdfrwt>
<totfact>-0.75727211E-14</totfact>
</mgrwt>
</event>
<event>
 4    1  0.5245809E-019  0.1492211E+02  0.7818608E-02  0.1870455E+00
          2   -1    0    0  501    0  0.00000000000E+00  0.00000000000E+00  0.12029131810E+03  0.12029131813E+03  0.25500000000E-02 0. -1.
         -2   -1    0    0    0  501 -0.00000000000E+00 -0.00000000000E+00 -0.46276733660E+00  0.46277436222E+00  0.25500000000E-02 0.  1.
         31    1    1    2    0    0 -0.13821771074E+00 -0.47199264863E-01  0.56414315645E+02  0.56903912586E+02  0.74470750000E+01 0.  1.
        -31    1    1    2    0    0  0.13821771074E+00  0.47199264863E-01  0.63414235123E+02  0.63850179908E+02  0.74470750000E+01 0. -1.
<mgrwt>
<rscale>  0 0.14922107E+02</rscale>
<asrwt>0</asrwt>
<pdfrwt beam="1">  1        2 0.99847932E+00 0.14922107E+02</pdfrwt>
<pdfrwt beam="2">  1       -2 0.98293682E+00 0.14922107E+02</pdfrwt>
<totfact> 0.35558483E-13</totfact>
</mgrwt>
</event>
<event>
 4    1  0.5245809E-019  0.1496512E+02  0.7818608E-02  0.1869135E+00
          2   -1    0    0  501    0  0.00000000000E+00  0.00000000000E+00  0.12020037583E+03  0.12020037585E+03  0.25500000000E-02 0. -1.
         -2   -1    0    0    0  501 -0.00000000000E+00 -0.00000000000E+00 -0.46579103340E+00  0.46579801341E+00  0.25500000000E-02 0.  1.
         31    1    1    2    0    0  0.57206698876E+00 -0.37572387532E+00  0.61864043179E+02  0.62314422035E+02  0.74470750000E+01 0.  1.
        -31    1    1    2    0    0 -0.57206698876E+00  0.37572387532E+00  0.57870541612E+02  0.58351751830E+02  0.74470750000E+01 0. -1.
<mgrwt>
<rscale>  0 0.14965117E+02</rscale>
<asrwt>0</asrwt>
<pdfrwt beam="1">  1        2 0.99775235E+00 0.14965117E+02</pdfrwt>
<pdfrwt beam="2">  1       -2 0.98933152E+00 0.14965117E+02</pdfrwt>
<totfact> 0.29811214E-14</totfact>
</mgrwt>
</event>
<event>
 4    1 -0.5245809E-019  0.1497658E+02  0.7818608E-02  0.1868784E+00
         -2   -1    0    0    0  501 -0.00000000000E+00  0.00000000000E+00  0.12033595129E+03  0.12033595132E+03  0.25500000000E-02 0.  1.
          2   -1    0    0  501    0  0.00000000000E+00 -0.00000000000E+00 -0.46597962131E+00  0.46598659850E+00  0.25500000000E-02 0. -1.
         31    1    1    2    0    0  0.75981254326E-01 -0.67876785071E+00  0.63049559269E+02  0.63491513992E+02  0.74470750000E+01 0.  1.
        -31    1    1    2    0    0 -0.75981254326E-01  0.67876785071E+00  0.56820412398E+02  0.57310423922E+02  0.74470750000E+01 0. -1.
<mgrwt>
<rscale>  0 0.14976585E+02</rscale>
<asrwt>0</asrwt>
<pdfrwt beam="2">  1        2 0.98973483E+00 0.14976585E+02</pdfrwt>
<pdfrwt beam="1">  1       -2 0.99887494E+00 0.14976585E+02</pdfrwt>
<totfact>-0.66344637E-14</totfact>
</mgrwt>
</event>
<event>
 4    1  0.5245809E-019  0.1491239E+02  0.7818608E-02  0.1870754E+00
          2   -1    0    0  501    0  0.00000000000E+00  0.00000000000E+00  0.11998061581E+03  0.11998061584E+03  0.25500000000E-02 0. -1.
         -2   -1    0    0    0  501 -0.00000000000E+00 -0.00000000000E+00 -0.46336186248E+00  0.46336887908E+00  0.25500000000E-02 0.  1.
         31    1    1    2    0    0  0.21611883106E-01  0.61493207368E-01  0.62689629755E+02  0.63130443158E+02  0.74470750000E+01 0. -1.
        -31    1    1    2    0    0 -0.21611883106E-01 -0.61493207368E-01  0.56827624196E+02  0.57313541561E+02  0.74470750000E+01 0.  1.
<mgrwt>
<rscale>  0 0.14912393E+02</rscale>
<asrwt>0</asrwt>
<pdfrwt beam="1">  1        2 0.99591514E+00 0.14912393E+02</pdfrwt>
<pdfrwt beam="2">  1       -2 0.98418497E+00 0.14912393E+02</pdfrwt>
<totfact> 0.53974153E-13</totfact>
</mgrwt>
</event>
<event>
 4    1 -0.5245809E-019  0.1494167E+02  0.7818608E-02  0.1869854E+00
         -2   -1    0    0    0  501 -0.00000000000E+00  0.00000000000E+00  0.11966223701E+03  0.11966223703E+03  0.25500000000E-02 0. -1.
          2   -1    0    0  501    0  0.00000000000E+00 -0.00000000000E+00 -0.46642065288E+00  0.46642762347E+00  0.25500000000E-02 0.  1.
         31    1    1    2    0    0  0.37966719371E+00  0.42111782783E+00  0.58138603190E+02  0.58616359443E+02  0.74470750000E+01 0. -1.
        -31    1    1    2    0    0 -0.37966719371E+00 -0.42111782783E+00  0.61057213164E+02  0.61512305214E+02  0.74470750000E+01 0.  1.
<mgrwt>
<rscale>  0 0.14941668E+02</rscale>
<asrwt>0</asrwt>
<pdfrwt beam="2">  1        2 0.99064641E+00 0.14941668E+02</pdfrwt>
<pdfrwt beam="1">  1       -2 0.99330785E+00 0.14941668E+02</pdfrwt>
<totfact>-0.15355177E-13</totfact>
</mgrwt>
</event>
<event>
 4    1 -0.5245809E-019  0.1490529E+02  0.7818608E-02  0.1870972E+00
         -2   -1    0    0    0  501 -0.00000000000E+00  0.00000000000E+00  0.12014156224E+03  0.12014156227E+03  0.25500000000E-02 0. -1.
          2   -1    0    0  501    0  0.00000000000E+00 -0.00000000000E+00 -0.46230030418E+00  0.46230733689E+00  0.25500000000E-02 0.  1.
         31    1    1    2    0    0  0.15721100291E+00 -0.19196737731E+00  0.58655591250E+02  0.59126972505E+02  0.74470750000E+01 0.  1.
        -31    1    1    2    0    0 -0.15721100291E+00  0.19196737731E+00  0.61023670686E+02  0.61476897098E+02  0.74470750000E+01 0. -1.
<mgrwt>
<rscale>  0 0.14905289E+02</rscale>
<asrwt>0</asrwt>
<pdfrwt beam="2">  1        2 0.98194395E+00 0.14905289E+02</pdfrwt>
<pdfrwt beam="1">  1       -2 0.99723718E+00 0.14905289E+02</pdfrwt>
<totfact>-0.43875151E-13</totfact>
</mgrwt>
</event>
<event>
 4    1 -0.5245809E-019  0.1495145E+02  0.7818608E-02  0.1869554E+00
          2   -1    0    0  501    0  0.00000000000E+00  0.00000000000E+00  0.11961992348E+03  0.11961992350E+03  0.25500000000E-02 0. -1.
         -2   -1    0    0    0  501 -0.00000000000E+00 -0.00000000000E+00 -0.46719666160E+00  0.46720362061E+00  0.25500000000E-02 0.  1.
         31    1    1    2    0    0  0.18416047975E+00 -0.13118114778E+00  0.64503984355E+02  0.64932842594E+02  0.74470750000E+01 0. -1.
        -31    1    1    2    0    0 -0.18416047975E+00  0.13118114778E+00  0.54648742460E+02  0.55154284531E+02  0.74470750000E+01 0.  1.
<mgrwt>
<rscale>  0 0.14951448E+02</rscale>
<asrwt>0</asrwt>
<pdfrwt beam="1">  1        2 0.99296439E+00 0.14951448E+02</pdfrwt>
<pdfrwt beam="2">  1       -2 0.99228680E+00 0.14951448E+02</pdfrwt>
<totfact>-0.10310584E-13</totfact>
</mgrwt>
</event>
<event>
 4    1  0.5245809E-019  0.1491532E+02  0.7818608E-02  0.1870664E+00
         -2   -1    0    0    0  501 -0.00000000000E+00  0.00000000000E+00  0.11891697461E+03  0.11891697464E+03  0.25500000000E-02 0. -1.
          2   -1    0    0  501    0  0.00000000000E+00 -0.00000000000E+00 -0.46769006298E+00  0.46769701465E+00  0.25500000000E-02 0.  1.
         31    1    1    2    0    0  0.68290367313E-01 -0.18512716399E+00  0.56465326720E+02  0.56954639700E+02  0.74470750000E+01 0.  1.
        -31    1    1    2    0    0 -0.68290367313E-01  0.18512716399E+00  0.61983957828E+02  0.62430031953E+02  0.74470750000E+01 0.  1.
<mgrwt>
<rscale>  0 0.14915322E+02</rscale>
<asrwt>0</asrwt>
<pdfrwt beam="2">  1        2 0.99330778E+00 0.14915322E+02</pdfrwt>
<pdfrwt beam="1">  1       -2 0.98715599E+00 0.14915322E+02</pdfrwt>
<totfact> 0.26552091E-13</totfact>
</mgrwt>
</event>
<event>
 4    1  0.5245809E-019  0.1494969E+02  0.7818608E-02  0.1869607E+00
          2   -1    0    0  501    0  0.00000000000E+00  0.00000000000E+00  0.12036017489E+03  0.12036017491E+03  0.25500000000E-02 0.  1.
         -2   -1    0    0    0  501 -0.00000000000E+00 -0.00000000000E+00 -0.46421432803E+00  0.46422133175E+00  0.25500000000E-02 0. -1.
         31    1    1    2    0    0  0.19152962706E+00  0.61263349843E+00  0.60344989166E+02  0.60806156324E+02  0.74470750000E+01 0.  1.
        -31    1    1    2    0    0 -0.19152962706E+00 -0.61263349843E+00  0.59550971393E+02  0.60018239922E+02  0.74470750000E+01 0.  1.
<mgrwt>
<rscale>  0 0.14949695E+02</rscale>
<asrwt>0</asrwt>
<pdfrwt beam="1">  1        2 0.99906064E+00 0.14949695E+02</pdfrwt>
<pdfrwt beam="2">  1       -2 0.98600059E+00 0.14949695E+02</pdfrwt>
<totfact> 0.10345903E-13</totfact>
</mgrwt>
</event>
<event>
 4    1 -0.5245809E-019  0.1499778E+02  0.7818608E-02  0.1868136E+00
         -2   -1    0    0    0  501 -0.00000000000E+00  0.00000000000E+00  0.12012557595E+03  0.12012557597E+03  0.25500000000E-02 0.  1.
          2   -1    0    0  501    0  0.00000000000E+00 -0.00000000000E+00 -0.46811776413E+00  0.46812470945E+00  0.25500000000E-02 0. -1.
         31    1    1    2    0    0  0.21887662611E+00 -0.78216182511E+00  0.57105217878E+02  0.57594483408E+02  0.74470750000E+01 0. -1.
        -31    1    1    2    0    0 -0.21887662611E+00  0.78216182511E+00  0.62552240304E+02  0.62999217274E+02  0.74470750000E+01 0.  1.
<mgrwt>
<rscale>  0 0.14997778E+02</rscale>
<asrwt>0</asrwt>
<pdfrwt beam="2">  1        2 0.99425180E+00 0.14997778E+02</pdfrwt>
<pdfrwt beam="1">  1       -2 0.99715309E+00 0.14997778E+02</pdfrwt>
<totfact>-0.98993250E-14</totfact>
</mgrwt>
</event>
<event>
 4    1  0.5245809E-019  0.1493436E+02  0.7818608E-02  0.1870078E+00
         -2   -1    0    0    0  501 -0.00000000000E+00  0.00000000000E+00  0.11863713332E+03  0.11863713335E+03  0.25500000000E-02 0. -1.
          2   -1    0    0  501    0  0.00000000000E+00 -0.00000000000E+00 -0.46999091373E+00  0.46999783136E+00  0.25500000000E-02 0.  1.
         31    1    1    2    0    0 -0.34748463492E+00 -0.18094264466E+00  0.56032258791E+02  0.56526334014E+02  0.74470750000E+01 0. -1.
        -31    1    1    2    0    0  0.34748463492E+00  0.18094264466E+00  0.62134883619E+02  0.62580797168E+02  0.74470750000E+01 0. -1.
<mgrwt>
<rscale>  0 0.14934361E+02</rscale>
<asrwt>0</asrwt>
<pdfrwt beam="2">  1        2 0.99816588E+00 0.14934361E+02</pdfrwt>
<pdfrwt beam="1">  1       -2 0.98486110E+00 0.14934361E+02</pdfrwt>
<totfact> 0.25857784E-13</totfact>
</mgrwt>
</event>
<event>
 4    1 -0.5245809E-019  0.1499096E+02  0.7818608E-02  0.1868345E+00
         -2   -1    0    0    0  501 -0.00000000000E+00  0.00000000000E+00  0.12013053463E+03  0.12013053466E+03  0.25500000000E-02 0. -1.
          2   -1    0    0  501    0  0.00000000000E+00 -0.00000000000E+00 -0.46767262610E+00  0.46767957803E+00  0.25500000000E-02 0.  1.
         31    1    1    2    0    0 -0.39076609341E+00  0.74300936041E+00  0.58737337729E+02  0.59213499564E+02  0.74470750000E+01 0. -1.
        -31    1    1    2    0    0  0.39076609341E+00 -0.74300936041E+00  0.60925524280E+02  0.61384714676E+02  0.74470750000E+01 0. -1.
<mgrwt>
<rscale>  0 0.14990955E+02</rscale>
<asrwt>0</asrwt>
<pdfrwt beam="2">  1        2 0.99331020E+00 0.14990955E+02</pdfrwt>
<pdfrwt beam="1">  1       -2 0.99719041E+00 0.14990955E+02</pdfrwt>
<totfact>-0.10562269E-13</totfact>
</mgrwt>
</event>
<event>
 4    1  0.5245809E-019  0.1490157E+02  0.7818608E-02  0.1871087E+00
         -2   -1    0    0    0  501 -0.00000000000E+00  0.00000000000E+00  0.11793792340E+03  0.11793792342E+03  0.25500000000E-02 0. -1.
          2   -1    0    0  501    0  0.00000000000E+00 -0.00000000000E+00 -0.47070375254E+00  0.47071065970E+00  0.25500000000E-02 0.  1.
         31    1    1    2    0    0 -0.21432592532E+00 -0.19514104699E-01  0.57980149409E+02  0.58456847058E+02  0.74470750000E+01 0.  1.
        -31    1    1    2    0    0  0.21432592532E+00  0.19514104699E-01  0.59487070233E+02  0.59951787024E+02  0.74470750000E+01 0. -1.
<mgrwt>
<rscale>  0 0.14901575E+02</rscale>
<asrwt>0</asrwt>
<pdfrwt beam="2">  1        2 0.99965038E+00 0.14901575E+02</pdfrwt>
<pdfrwt beam="1">  1       -2 0.97908543E+00 0.14901575E+02</pdfrwt>
<totfact> 0.18926546E-13</totfact>
</mgrwt>
</event>
<event>
 4    1 -0.5245809E-019  0.1491682E+02  0.7818608E-02  0.1870617E+00
         -2   -1    0    0    0  501 -0.00000000000E+00  0.00000000000E+00  0.11997377071E+03  0.11997377073E+03  0.25500000000E-02 0.  1.
          2   -1    0    0  501    0  0.00000000000E+00 -0.00000000000E+00 -0.46366345076E+00  0.46367046279E+00  0.25500000000E-02 0. -1.
         31    1    1    2    0    0  0.90768254337E-01 -0.80280647369E-01  0.56583872147E+02  0.57071956310E+02  0.74470750000E+01 0. -1.
        -31    1    1    2    0    0 -0.90768254337E-01  0.80280647369E-01  0.62926235108E+02  0.63365484885E+02  0.74470750000E+01 0.  1.
<mgrwt>
<rscale>  0 0.14916820E+02</rscale>
<asrwt>0</asrwt>
<pdfrwt beam="2">  1        2 0.98482285E+00 0.14916820E+02</pdfrwt>
<pdfrwt beam="1">  1       -2 0.99586103E+00 0.14916820E+02</pdfrwt>
<totfact>-0.34001354E-13</totfact>
</mgrwt>
</event>
<event>
 4    1  0.5245809E-019  0.1491075E+02  0.7818608E-02  0.1870804E+00
         -2   -1    0    0    0  501 -0.00000000000E+00  0.00000000000E+00  0.11855509809E+03  0.11855509812E+03  0.25500000000E-02 0.  1.
          2   -1    0    0  501    0  0.00000000000E+00 -0.00000000000E+00 -0.46883006370E+00  0.46883699847E+00  0.25500000000E-02 0. -1.
         31    1    1    2    0    0  0.20934085280E+00  0.17193120825E+00  0.57252888803E+02  0.57735825847E+02  0.74470750000E+01 0. -1.
        -31    1    1    2    0    0 -0.20934085280E+00 -0.17193120825E+00  0.60833379227E+02  0.61288109272E+02  0.74470750000E+01 0.  1.
<mgrwt>
<rscale>  0 0.14910749E+02</rscale>
<asrwt>0</asrwt>
<pdfrwt beam="2">  1        2 0.99570750E+00 0.14910749E+02</pdfrwt>
<pdfrwt beam="1">  1       -2 0.98417317E+00 0.14910749E+02</pdfrwt>
<totfact> 0.55682691E-13</totfact>
</mgrwt>
</event>
<event>
 4    1 -0.5245809E-019  0.1497276E+02  0.7818608E-02  0.1868901E+00
         -2   -1    0    0    0  501 -0.00000000000E+00  0.00000000000E+00  0.11944806261E+03  0.11944806264E+03  0.25500000000E-02 0. -1.
          2   -1    0    0  501    0  0.00000000000E+00 -0.00000000000E+00 -0.46920381959E+00  0.46921074883E+00  0.25500000000E-02 0.  1.
         31    1    1    2    0    0 -0.19383486675E-01  0.75849112811E+00  0.58638293394E+02  0.59114161271E+02  0.74470750000E+01 0.  1.
        -31    1    1    2    0    0  0.19383486675E-01 -0.75849112811E+00  0.60340565398E+02  0.60803112117E+02  0.74470750000E+01 0.  1.
<mgrwt>
<rscale>  0 0.14972763E+02</rscale>
<asrwt>0</asrwt>
<pdfrwt beam="2">  1        2 0.99652751E+00 0.14972763E+02</pdfrwt>
<pdfrwt beam="1">  1       -2 0.99155992E+00 0.14972763E+02</pdfrwt>
<totfact>-0.52004748E-14</totfact>
</mgrwt>
</event>
<event>
 4    1 -0.5245809E-019  0.1495992E+02  0.7818608E-02  0.1869294E+00
          2   -1    0    0  501    0  0.00000000000E+00  0.00000000000E+00  0.11899648428E+03  0.11899648430E+03  0.25500000000E-02 0. -1.
         -2   -1    0    0    0  501 -0.00000000000E+00 -0.00000000000E+00 -0.47017704522E+00  0.47018396012E+00  0.25500000000E-02 0.  1.
         31    1    1    2    0    0 -0.29300225630E+00 -0.32125667752E+00  0.63650595661E+02  0.64086241193E+02  0.74470750000E+01 0. -1.
        -31    1    1    2    0    0  0.29300225630E+00  0.32125667752E+00  0.54875711571E+02  0.55380427072E+02  0.74470750000E+01 0. -1.
<mgrwt>
<rscale>  0 0.14959924E+02</rscale>
<asrwt>0</asrwt>
<pdfrwt beam="1">  1        2 0.98783400E+00 0.14959924E+02</pdfrwt>
<pdfrwt beam="2">  1       -2 0.99857152E+00 0.14959924E+02</pdfrwt>
<totfact>-0.10209216E-13</totfact>
</mgrwt>
</event>
<event>
 4    1 -0.5245809E-019  0.1500909E+02  0.7818608E-02  0.1867791E+00
          2   -1    0    0  501    0  0.00000000000E+00  0.00000000000E+00  0.11963492915E+03  0.11963492918E+03  0.25500000000E-02 0.  1.
         -2   -1    0    0    0  501 -0.00000000000E+00 -0.00000000000E+00 -0.47074678774E+00  0.47075369427E+00  0.25500000000E-02 0. -1.
         31    1    1    2    0    0 -0.77134307465E+00 -0.49500048286E+00  0.60692446693E+02  0.61154492944E+02  0.74470750000E+01 0. -1.
        -31    1    1    2    0    0  0.77134307465E+00  0.49500048286E+00  0.58471735672E+02  0.58951189930E+02  0.74470750000E+01 0. -1.
<mgrwt>
<rscale>  0 0.15009087E+02</rscale>
<asrwt>0</asrwt>
<pdfrwt beam="1">  1        2 0.99311782E+00 0.15009087E+02</pdfrwt>
<pdfrwt beam="2">  1       -2 0.99979779E+00 0.15009087E+02</pdfrwt>
<totfact>-0.97723126E-15</totfact>
</mgrwt>
</event>
<event>
 4    1 -0.5245809E-019  0.1496714E+02  0.7818608E-02  0.1869073E+00
          2   -1    0    0  501    0  0.00000000000E+00  0.00000000000E+00  0.11955067986E+03  0.11955067989E+03  0.25500000000E-02 0. -1.
         -2   -1    0    0    0  501 -0.00000000000E+00 -0.00000000000E+00 -0.46844877573E+00  0.46845571614E+00  0.25500000000E-02 0.  1.
         31    1    1    2    0    0 -0.65719580372E-02 -0.42121564421E+00  0.54680638048E+02  0.55187032618E+02  0.74470750000E+01 0.  1.
        -31    1    1    2    0    0  0.65719580372E-02  0.42121564421E+00  0.64401593034E+02  0.64832102983E+02  0.74470750000E+01 0. -1.
<mgrwt>
<rscale>  0 0.14967136E+02</rscale>
<asrwt>0</asrwt>
<pdfrwt beam="1">  1        2 0.99240219E+00 0.14967136E+02</pdfrwt>
<pdfrwt beam="2">  1       -2 0.99493352E+00 0.14967136E+02</pdfrwt>
<totfact>-0.14717595E-13</totfact>
</mgrwt>
</event>
<event>
 4    1  0.5245809E-019  0.1492369E+02  0.7818608E-02  0.1870406E+00
          2   -1    0    0  501    0  0.00000000000E+00  0.00000000000E+00  0.11961754968E+03  0.11961754970E+03  0.25500000000E-02 0.  1.
         -2   -1    0    0    0  501 -0.00000000000E+00 -0.00000000000E+00 -0.46547284729E+00  0.46547983207E+00  0.25500000000E-02 0. -1.
         31    1    1    2    0    0  0.16860296226E+00  0.41243735755E+00  0.58391133164E+02  0.58865795584E+02  0.74470750000E+01 0. -1.
        -31    1    1    2    0    0 -0.16860296226E+00 -0.41243735755E+00  0.60760943666E+02  0.61217233953E+02  0.74470750000E+01 0. -1.
<mgrwt>
<rscale>  0 0.14923692E+02</rscale>
<asrwt>0</asrwt>
<pdfrwt beam="1">  1        2 0.99293051E+00 0.14923692E+02</pdfrwt>
<pdfrwt beam="2">  1       -2 0.98863973E+00 0.14923692E+02</pdfrwt>
<totfact> 0.11760825E-13</totfact>
</mgrwt>
</event>
<event>
 4    1 -0.5245809E-019  0.1500491E+02  0.7818608E-02  0.1867919E+00
          2   -1    0    0  501    0  0.00000000000E+00  0.00000000000E+00  0.12028699279E+03  0.12028699282E+03  0.25500000000E-02 0. -1.
         -2   -1    0    0    0  501 -0.00000000000E+00 -0.00000000000E+00 -0.46793448480E+00  0.46794143284E+00  0.25500000000E-02 0.  1.
         31    1    1    2    0    0 -0.96452814925E-01 -0.86625563932E+00  0.57807476897E+02  0.58291706213E+02  0.74470750000E+01 0.  1.
        -31    1    1    2    0    0  0.96452814925E-01  0.86625563932E+00  0.62011581412E+02  0.62463228040E+02  0.74470750000E+01 0. -1.
<mgrwt>
<rscale>  0 0.15004913E+02</rscale>
<asrwt>0</asrwt>
<pdfrwt beam="1">  1        2 0.99848628E+00 0.15004913E+02</pdfrwt>
<pdfrwt beam="2">  1       -2 0.99386922E+00 0.15004913E+02</pdfrwt>
<totfact>-0.50703120E-14</totfact>
</mgrwt>
</event>
<event>
 4    1  0.5245809E-019  0.1491962E+02  0.7818608E-02  0.1870531E+00
          2   -1    0    0  501    0  0.00000000000E+00  0.00000000000E+00  0.12020260714E+03  0.12020260717E+03  0.25500000000E-02 0. -1.
         -2   -1    0    0    0  501 -0.00000000000E+00 -0.00000000000E+00 -0.46295438806E+00  0.46296141083E+00  0.25500000000E-02 0.  1.
         31    1    1    2    0    0  0.39957206206E+00  0.17250485096E+00  0.59706471794E+02  0.60170683192E+02  0.74470750000E+01 0.  1.
        -31    1    1    2    0    0 -0.39957206206E+00 -0.17250485096E+00  0.60033180957E+02  0.60494885384E+02  0.74470750000E+01 0.  1.
<mgrwt>
<rscale>  0 0.14919618E+02</rscale>
<asrwt>0</asrwt>
<pdfrwt beam="1">  1        2 0.99774735E+00 0.14919618E+02</pdfrwt>
<pdfrwt beam="2">  1       -2 0.98332981E+00 0.14919618E+02</pdfrwt>
<totfact> 0.44500896E-13</totfact>
</mgrwt>
</event>
<event>
 4    1 -0.5245809E-019  0.1494974E+02  0.7818608E-02  0.1869606E+00
         -2   -1    0    0    0  501 -0.00000000000E+00  0.00000000000E+00  0.12006265798E+03  0.12006265800E+03  0.25500000000E-02 0.  1.
          2   -1    0    0  501    0  0.00000000000E+00 -0.00000000000E+00 -0.46536754144E+00  0.46537452780E+00  0.25500000000E-02 0. -1.
         31    1    1    2    0    0  0.60864199962E-01  0.18732381816E+00  0.54855212404E+02  0.55358757651E+02  0.74470750000E+01 0. -1.
        -31    1    1    2    0    0 -0.60864199962E-01 -0.18732381816E+00  0.64742078031E+02  0.65169274881E+02  0.74470750000E+01 0.  1.
<mgrwt>
<rscale>  0 0.14949741E+02</rscale>
<asrwt>0</asrwt>
<pdfrwt beam="2">  1        2 0.98843114E+00 0.14949741E+02</pdfrwt>
<pdfrwt beam="1">  1       -2 0.99661010E+00 0.14949741E+02</pdfrwt>
<totfact>-0.18261347E-13</totfact>
</mgrwt>
</event>
<event>
 4    1 -0.5245809E-019  0.1490954E+02  0.7818608E-02  0.1870841E+00
         -2   -1    0    0    0  501 -0.00000000000E+00  0.00000000000E+00  0.12031210479E+03  0.12031210482E+03  0.25500000000E-02 0. -1.
          2   -1    0    0  501    0  0.00000000000E+00 -0.00000000000E+00 -0.46190851466E+00  0.46191555333E+00  0.25500000000E-02 0.  1.
         31    1    1    2    0    0  0.25765449366E-01 -0.64789415009E-01  0.57240623829E+02  0.57723069945E+02  0.74470750000E+01 0.  1.
        -31    1    1    2    0    0 -0.25765449366E-01  0.64789415009E-01  0.62609572446E+02  0.63050950424E+02  0.74470750000E+01 0. -1.
<mgrwt>
<rscale>  0 0.14909542E+02</rscale>
<asrwt>0</asrwt>
<pdfrwt beam="2">  1        2 0.98112030E+00 0.14909542E+02</pdfrwt>
<pdfrwt beam="1">  1       -2 0.99864410E+00 0.14909542E+02</pdfrwt>
<totfact>-0.28428631E-13</totfact>
</mgrwt>
</event>
<event>
 4    1 -0.5245809E-019  0.1494100E+02  0.7818608E-02  0.1869874E+00
         -2   -1    0    0    0  501 -0.00000000000E+00  0.00000000000E+00  0.11997926161E+03  0.11997926164E+03  0.25500000000E-02 0.  1.
          2   -1    0    0  501    0  0.00000000000E+00 -0.00000000000E+00 -0.46514671359E+00  0.46515370327E+00  0.25500000000E-02 0. -1.
         31    1    1    2    0    0  0.26027802130E-01 -0.27166071914E-01  0.55001277757E+02  0.55503161139E+02  0.74470750000E+01 0. -1.
        -31    1    1    2    0    0 -0.26027802130E-01  0.27166071914E-01  0.64512837141E+02  0.64941254203E+02  0.74470750000E+01 0.  1.
<mgrwt>
<rscale>  0 0.14941002E+02</rscale>
<asrwt>0</asrwt>
<pdfrwt beam="2">  1        2 0.98796127E+00 0.14941002E+02</pdfrwt>
<pdfrwt beam="1">  1       -2 0.99591870E+00 0.14941002E+02</pdfrwt>
<totfact>-0.21228079E-13</totfact>
</mgrwt>
</event>
<event>
 4    1  0.5245809E-019  0.1494041E+02  0.7818608E-02  0.1869892E+00
         -2   -1    0    0    0  501 -0.00000000000E+00  0.00000000000E+00  0.11861096388E+03  0.11861096391E+03  0.25500000000E-02 0.  1.
          2   -1    0    0  501    0  0.00000000000E+00 -0.00000000000E+00 -0.47047574486E+00  0.47048265536E+00  0.25500000000E-02 0. -1.
         31    1    1    2    0    0  0.37396855141E+00 -0.43219467176E+00  0.60152107014E+02  0.60614037557E+02  0.74470750000E+01 0. -1.
        -31    1    1    2    0    0 -0.37396855141E+00  0.43219467176E+00  0.57988381120E+02  0.58467409004E+02  0.74470750000E+01 0.  1.
<mgrwt>
<rscale>  0 0.14940414E+02</rscale>
<asrwt>0</asrwt>
<pdfrwt beam="2">  1        2 0.99919061E+00 0.14940414E+02</pdfrwt>
<pdfrwt beam="1">  1       -2 0.98464872E+00 0.14940414E+02</pdfrwt>
<totfact> 0.13545826E-13</totfact>
</mgrwt>
</event>
<event>
 4    1 -0.5245809E-019  0.1491194E+02  0.7818608E-02  0.1870768E+00
         -2   -1    0    0    0  501 -0.00000000000E+00  0.00000000000E+00  0.12022449137E+03  0.12022449139E+03  0.25500000000E-02 0. -1.
          2   -1    0    0  501    0  0.00000000000E+00 -0.00000000000E+00 -0.46239359456E+00  0.46240062586E+00  0.25500000000E-02 0.  1.
         31    1    1    2    0    0 -0.22949049878E+00  0.12366291102E+00  0.57824390105E+02  0.58302546904E+02  0.74470750000E+01 0.  1.
        -31    1    1    2    0    0  0.22949049878E+00 -0.12366291102E+00  0.61937707665E+02  0.62384345114E+02  0.74470750000E+01 0. -1.
<mgrwt>
<rscale>  0 0.14911936E+02</rscale>
<asrwt>0</asrwt>
<pdfrwt beam="2">  1        2 0.98214393E+00 0.14911936E+02</pdfrwt>
<pdfrwt beam="1">  1       -2 0.99792366E+00 0.14911936E+02</pdfrwt>
<totfact>-0.34268938E-13</totfact>
</mgrwt>
</event>
<event>
 4    1 -0.5245809E-019  0.1492666E+02  0.7818608E-02  0.1870315E+00
          2   -1    0    0  501    0  0.00000000000E+00  0.00000000000E+00  0.11848584421E+03  0.11848584423E+03  0.25500000000E-02 0. -1.
         -2   -1    0    0    0  501 -0.00000000000E+00 -0.00000000000E+00 -0.47010605730E+00  0.47011297324E+00  0.25500000000E-02 0.  1.
         31    1    1    2    0    0  0.16417668282E+00  0.36746198932E+00  0.61267821167E+02  0.61720068203E+02  0.74470750000E+01 0. -1.
        -31    1    1    2    0    0 -0.16417668282E+00 -0.36746198932E+00  0.56747916981E+02  0.57235889003E+02  0.74470750000E+01 0. -1.
<mgrwt>
<rscale>  0 0.14926664E+02</rscale>
<asrwt>0</asrwt>
<pdfrwt beam="1">  1        2 0.98361108E+00 0.14926664E+02</pdfrwt>
<pdfrwt beam="2">  1       -2 0.99840442E+00 0.14926664E+02</pdfrwt>
<totfact>-0.21515714E-13</totfact>
</mgrwt>
</event>
<event>
 4    1 -0.5245809E-019  0.1499016E+02  0.7818608E-02  0.1868369E+00
          2   -1    0    0  501    0  0.00000000000E+00  0.00000000000E+00  0.12010972506E+03  0.12010972509E+03  0.25500000000E-02 0.  1.
         -2   -1    0    0    0  501 -0.00000000000E+00 -0.00000000000E+00 -0.46770377060E+00  0.46771072206E+00  0.25500000000E-02 0. -1.
         31    1    1    2    0    0 -0.65071016479E+00  0.53230334136E+00  0.58996949547E+02  0.59471049700E+02  0.74470750000E+01 0. -1.
        -31    1    1    2    0    0  0.65071016479E+00 -0.53230334136E+00  0.60645071741E+02  0.61106386107E+02  0.74470750000E+01 0.  1.
<mgrwt>
<rscale>  0 0.14990156E+02</rscale>
<asrwt>0</asrwt>
<pdfrwt beam="1">  1        2 0.99701860E+00 0.14990156E+02</pdfrwt>
<pdfrwt beam="2">  1       -2 0.99337542E+00 0.14990156E+02</pdfrwt>
<totfact>-0.80677184E-14</totfact>
</mgrwt>
</event>
<event>
 4    1 -0.5245809E-019  0.1495362E+02  0.7818608E-02  0.1869487E+00
         -2   -1    0    0    0  501 -0.00000000000E+00  0.00000000000E+00  0.11962955845E+03  0.11962955847E+03  0.25500000000E-02 0.  1.
          2   -1    0    0  501    0  0.00000000000E+00 -0.00000000000E+00 -0.46729466769E+00  0.46730162524E+00  0.25500000000E-02 0. -1.
         31    1    1    2    0    0 -0.14687290076E+00 -0.15752215568E+00  0.54518466617E+02  0.55025162546E+02  0.74470750000E+01 0. -1.
        -31    1    1    2    0    0  0.14687290076E+00  0.15752215568E+00  0.64643797162E+02  0.65071697553E+02  0.74470750000E+01 0.  1.
<mgrwt>
<rscale>  0 0.14953618E+02</rscale>
<asrwt>0</asrwt>
<pdfrwt beam="2">  1        2 0.99249445E+00 0.14953618E+02</pdfrwt>
<pdfrwt beam="1">  1       -2 0.99304487E+00 0.14953618E+02</pdfrwt>
<totfact>-0.12773769E-13</totfact>
</mgrwt>
</event>
<event>
 4    1 -0.5245809E-019  0.1492240E+02  0.7818608E-02  0.1870446E+00
          2   -1    0    0  501    0  0.00000000000E+00  0.00000000000E+00  0.11871919004E+03  0.11871919006E+03  0.25500000000E-02 0. -1.
         -2   -1    0    0    0  501 -0.00000000000E+00 -0.00000000000E+00 -0.46891419771E+00  0.46892113123E+00  0.25500000000E-02 0.  1.
         31    1    1    2    0    0  0.87145040097E-01  0.27385120164E+00  0.56267399087E+02  0.56758802972E+02  0.74470750000E+01 0. -1.
        -31    1    1    2    0    0 -0.87145040097E-01 -0.27385120164E+00  0.61982876751E+02  0.62429308222E+02  0.74470750000E+01 0. -1.
<mgrwt>
<rscale>  0 0.14922403E+02</rscale>
<asrwt>0</asrwt>
<pdfrwt beam="1">  1        2 0.98553070E+00 0.14922403E+02</pdfrwt>
<pdfrwt beam="2">  1       -2 0.99589090E+00 0.14922403E+02</pdfrwt>
<totfact>-0.30258475E-13</totfact>
</mgrwt>
</event>
<event>
 4    1 -0.5245809E-019  0.1490123E+02  0.7818608E-02  0.1871097E+00
         -2   -1    0    0    0  501 -0.00000000000E+00  0.00000000000E+00  0.12024795867E+03  0.12024795869E+03  0.25500000000E-02 0. -1.
          2   -1    0    0  501    0  0.00000000000E+00 -0.00000000000E+00 -0.46163989081E+00  0.46164693358E+00  0.25500000000E-02 0.  1.
         31    1    1    2    0    0  0.15873080448E+00 -0.15516754874E+00  0.60371215115E+02  0.60829201975E+02  0.74470750000E+01 0. -1.
        -31    1    1    2    0    0 -0.15873080448E+00  0.15516754874E+00  0.59415103661E+02  0.59880403652E+02  0.74470750000E+01 0.  1.
<mgrwt>
<rscale>  0 0.14901232E+02</rscale>
<asrwt>0</asrwt>
<pdfrwt beam="2">  1        2 0.98054992E+00 0.14901232E+02</pdfrwt>
<pdfrwt beam="1">  1       -2 0.99811148E+00 0.14901232E+02</pdfrwt>
<totfact>-0.41466519E-13</totfact>
</mgrwt>
</event>
<event>
 4    1 -0.5245809E-019  0.1496625E+02  0.7818608E-02  0.1869100E+00
         -2   -1    0    0    0  501 -0.00000000000E+00  0.00000000000E+00  0.11981128725E+03  0.11981128727E+03  0.25500000000E-02 0. -1.
          2   -1    0    0  501    0  0.00000000000E+00 -0.00000000000E+00 -0.46737464210E+00  0.46738159846E+00  0.25500000000E-02 0.  1.
         31    1    1    2    0    0 -0.19900562538E+00 -0.37850709798E+00  0.64462914525E+02  0.64893059305E+02  0.74470750000E+01 0. -1.
        -31    1    1    2    0    0  0.19900562538E+00  0.37850709798E+00  0.54880998081E+02  0.55385609568E+02  0.74470750000E+01 0.  1.
<mgrwt>
<rscale>  0 0.14966252E+02</rscale>
<asrwt>0</asrwt>
<pdfrwt beam="2">  1        2 0.99266951E+00 0.14966252E+02</pdfrwt>
<pdfrwt beam="1">  1       -2 0.99454819E+00 0.14966252E+02</pdfrwt>
<totfact>-0.14435509E-13</totfact>
</mgrwt>
</event>
<event>
 4    1  0.5245809E-019  0.1490587E+02  0.7818608E-02  0.1870955E+00
          2   -1    0    0  501    0  0.00000000000E+00  0.00000000000E+00  0.11985293862E+03  0.11985293864E+03  0.25500000000E-02 0.  1.
         -2   -1    0    0    0  501 -0.00000000000E+00 -0.00000000000E+00 -0.46344980957E+00  0.46345682484E+00  0.25500000000E-02 0. -1.
         31    1    1    2    0    0  0.66549524491E-01  0.24675420983E+00  0.58497437566E+02  0.58970114841E+02  0.74470750000E+01 0. -1.
        -31    1    1    2    0    0 -0.66549524491E-01 -0.24675420983E+00  0.60892051241E+02  0.61346280628E+02  0.74470750000E+01 0. -1.
<mgrwt>
<rscale>  0 0.14905871E+02</rscale>
<asrwt>0</asrwt>
<pdfrwt beam="1">  1        2 0.99486014E+00 0.14905871E+02</pdfrwt>
<pdfrwt beam="2">  1       -2 0.98436701E+00 0.14905871E+02</pdfrwt>
<totfact> 0.58343425E-13</totfact>
</mgrwt>
</event>
<event>
 4    1 -0.5245809E-019  0.1498261E+02  0.7818608E-02  0.1868600E+00
         -2   -1    0    0    0  501 -0.00000000000E+00  0.00000000000E+00  0.12016561541E+03  0.12016561544E+03  0.25500000000E-02 0.  1.
          2   -1    0    0  501    0  0.00000000000E+00 -0.00000000000E+00 -0.46701566984E+00  0.46702263154E+00  0.25500000000E-02 0. -1.
         31    1    1    2    0    0  0.25487757817E+00 -0.23351314373E+00  0.53925938216E+02  0.54438820979E+02  0.74470750000E+01 0. -1.
        -31    1    1    2    0    0 -0.25487757817E+00  0.23351314373E+00  0.65772661527E+02  0.66193817093E+02  0.74470750000E+01 0.  1.
<mgrwt>
<rscale>  0 0.14982610E+02</rscale>
<asrwt>0</asrwt>
<pdfrwt beam="2">  1        2 0.99192140E+00 0.14982610E+02</pdfrwt>
<pdfrwt beam="1">  1       -2 0.99747505E+00 0.14982610E+02</pdfrwt>
<totfact>-0.10827093E-13</totfact>
</mgrwt>
</event>
<event>
 4    1 -0.5245809E-019  0.1490467E+02  0.7818608E-02  0.1870992E+00
         -2   -1    0    0    0  501 -0.00000000000E+00  0.00000000000E+00  0.12004064591E+03  0.12004064593E+03  0.25500000000E-02 0. -1.
          2   -1    0    0  501    0  0.00000000000E+00 -0.00000000000E+00 -0.46265058489E+00  0.46265761228E+00  0.25500000000E-02 0.  1.
         31    1    1    2    0    0 -0.27003973245E-01 -0.27071049959E+00  0.59255107852E+02  0.59721861542E+02  0.74470750000E+01 0.  1.
        -31    1    1    2    0    0  0.27003973245E-01  0.27071049959E+00  0.60322887470E+02  0.60781442005E+02  0.74470750000E+01 0. -1.
<mgrwt>
<rscale>  0 0.14904670E+02</rscale>
<asrwt>0</asrwt>
<pdfrwt beam="2">  1        2 0.98268192E+00 0.14904670E+02</pdfrwt>
<pdfrwt beam="1">  1       -2 0.99640563E+00 0.14904670E+02</pdfrwt>
<totfact>-0.45551887E-13</totfact>
</mgrwt>
</event>
<event>
 4    1  0.5245809E-019  0.1493235E+02  0.7818608E-02  0.1870140E+00
         -2   -1    0    0    0  501 -0.00000000000E+00  0.00000000000E+00  0.11880621567E+03  0.11880621570E+03  0.25500000000E-02 0.  1.
          2   -1    0    0  501    0  0.00000000000E+00 -0.00000000000E+00 -0.46919554156E+00  0.46920247092E+00  0.25500000000E-02 0. -1.
         31    1    1    2    0    0  0.13473798827E+00 -0.50627179848E+00  0.58355092279E+02  0.58830690855E+02  0.74470750000E+01 0.  1.
        -31    1    1    2    0    0 -0.13473798827E+00  0.50627179848E+00  0.59981927849E+02  0.60444727314E+02  0.74470750000E+01 0. -1.
<mgrwt>
<rscale>  0 0.14932349E+02</rscale>
<asrwt>0</asrwt>
<pdfrwt beam="2">  1        2 0.99648894E+00 0.14932349E+02</pdfrwt>
<pdfrwt beam="1">  1       -2 0.98625261E+00 0.14932349E+02</pdfrwt>
<totfact> 0.26743902E-13</totfact>
</mgrwt>
</event>
<event>
 4    1  0.5245809E-019  0.1493042E+02  0.7818608E-02  0.1870199E+00
         -2   -1    0    0    0  501 -0.00000000000E+00  0.00000000000E+00  0.11913696943E+03  0.11913696946E+03  0.25500000000E-02 0.  1.
          2   -1    0    0  501    0  0.00000000000E+00 -0.00000000000E+00 -0.46777206194E+00  0.46777901239E+00  0.25500000000E-02 0. -1.
         31    1    1    2    0    0  0.51040385593E+00  0.12950997591E-01  0.60125896761E+02  0.60587482760E+02  0.74470750000E+01 0. -1.
        -31    1    1    2    0    0 -0.51040385593E+00 -0.12950997591E-01  0.58543300610E+02  0.59017265712E+02  0.74470750000E+01 0. -1.
<mgrwt>
<rscale>  0 0.14930420E+02</rscale>
<asrwt>0</asrwt>
<pdfrwt beam="2">  1        2 0.99348843E+00 0.14930420E+02</pdfrwt>
<pdfrwt beam="1">  1       -2 0.98897574E+00 0.14930420E+02</pdfrwt>
<totfact> 0.84510627E-14</totfact>
</mgrwt>
</event>
<event>
 4    1  0.5245809E-019  0.1489633E+02  0.7818608E-02  0.1871249E+00
         -2   -1    0    0    0  501 -0.00000000000E+00  0.00000000000E+00  0.11857484927E+03  0.11857484929E+03  0.25500000000E-02 0.  1.
          2   -1    0    0  501    0  0.00000000000E+00 -0.00000000000E+00 -0.46784598995E+00  0.46785293930E+00  0.25500000000E-02 0. -1.
         31    1    1    2    0    0 -0.11315635689E+00  0.58247139907E-01  0.58991673202E+02  0.59460008664E+02  0.74470750000E+01 0. -1.
        -31    1    1    2    0    0  0.11315635689E+00 -0.58247139907E-01  0.59115330075E+02  0.59582693569E+02  0.74470750000E+01 0. -1.
<mgrwt>
<rscale>  0 0.14896333E+02</rscale>
<asrwt>0</asrwt>
<pdfrwt beam="2">  1        2 0.99362641E+00 0.14896333E+02</pdfrwt>
<pdfrwt beam="1">  1       -2 0.98432835E+00 0.14896333E+02</pdfrwt>
<totfact> 0.65509658E-13</totfact>
</mgrwt>
</event>
<event>
 4    1 -0.5245809E-019  0.1491269E+02  0.7818608E-02  0.1870745E+00
         -2   -1    0    0    0  501 -0.00000000000E+00  0.00000000000E+00  0.12014091535E+03  0.12014091538E+03  0.25500000000E-02 0. -1.
          2   -1    0    0  501    0  0.00000000000E+00 -0.00000000000E+00 -0.46276208375E+00  0.46276910945E+00  0.25500000000E-02 0.  1.
         31    1    1    2    0    0  0.18038128920E+00  0.13405975569E+00  0.62233389388E+02  0.62677780674E+02  0.74470750000E+01 0. -1.
        -31    1    1    2    0    0 -0.18038128920E+00 -0.13405975569E+00  0.57444763877E+02  0.57925903812E+02  0.74470750000E+01 0.  1.
<mgrwt>
<rscale>  0 0.14912691E+02</rscale>
<asrwt>0</asrwt>
<pdfrwt beam="2">  1        2 0.98292099E+00 0.14912691E+02</pdfrwt>
<pdfrwt beam="1">  1       -2 0.99723565E+00 0.14912691E+02</pdfrwt>
<totfact>-0.37209355E-13</totfact>
</mgrwt>
</event>
<event>
 4    1  0.5245809E-019  0.1491084E+02  0.7818608E-02  0.1870802E+00
          2   -1    0    0  501    0  0.00000000000E+00  0.00000000000E+00  0.11947535844E+03  0.11947535847E+03  0.25500000000E-02 0.  1.
         -2   -1    0    0    0  501 -0.00000000000E+00 -0.00000000000E+00 -0.46522450009E+00  0.46523148860E+00  0.25500000000E-02 0. -1.
         31    1    1    2    0    0  0.23176948799E+00  0.13534367438E+00  0.57665088273E+02  0.58144590174E+02  0.74470750000E+01 0. -1.
        -31    1    1    2    0    0 -0.23176948799E+00 -0.13534367438E+00  0.61345045669E+02  0.61795999783E+02  0.74470750000E+01 0.  1.
<mgrwt>
<rscale>  0 0.14910840E+02</rscale>
<asrwt>0</asrwt>
<pdfrwt beam="1">  1        2 0.99175272E+00 0.14910840E+02</pdfrwt>
<pdfrwt beam="2">  1       -2 0.98810975E+00 0.14910840E+02</pdfrwt>
<totfact> 0.18337151E-13</totfact>
</mgrwt>
</event>
<event>
 4    1  0.5245809E-019  0.1491748E+02  0.7818608E-02  0.1870597E+00
          2   -1    0    0  501    0  0.00000000000E+00  0.00000000000E+00  0.11990180812E+03  0.11990180815E+03  0.25500000000E-02 0. -1.
         -2   -1    0    0    0  501 -0.00000000000E+00 -0.00000000000E+00 -0.46398282024E+00  0.46398982745E+00  0.25500000000E-02 0.  1.
         31    1    1    2    0    0 -0.37346846369E+00 -0.92898009641E-01  0.61014136927E+02  0.61468137598E+02  0.74470750000E+01 0.  1.
        -31    1    1    2    0    0  0.37346846369E+00  0.92898009641E-01  0.58423688376E+02  0.58897660380E+02  0.74470750000E+01 0.  1.
<mgrwt>
<rscale>  0 0.14917480E+02</rscale>
<asrwt>0</asrwt>
<pdfrwt beam="1">  1        2 0.99526863E+00 0.14917480E+02</pdfrwt>
<pdfrwt beam="2">  1       -2 0.98549629E+00 0.14917480E+02</pdfrwt>
<totfact> 0.40704778E-13</totfact>
</mgrwt>
</event>
<event>
 4    1 -0.5245809E-019  0.1489488E+02  0.7818608E-02  0.1871293E+00
          2   -1    0    0  501    0  0.00000000000E+00  0.00000000000E+00  0.11834286898E+03  0.11834286901E+03  0.25500000000E-02 0. -1.
         -2   -1    0    0    0  501 -0.00000000000E+00 -0.00000000000E+00 -0.46867188087E+00  0.46867881798E+00  0.25500000000E-02 0.  1.
         31    1    1    2    0    0  0.16038309694E-01  0.69279629558E-01  0.59097780623E+02  0.59565188303E+02  0.74470750000E+01 0. -1.
        -31    1    1    2    0    0 -0.16038309694E-01 -0.69279629558E-01  0.58776416480E+02  0.59246359527E+02  0.74470750000E+01 0.  1.
<mgrwt>
<rscale>  0 0.14894884E+02</rscale>
<asrwt>0</asrwt>
<pdfrwt beam="1">  1        2 0.98241701E+00 0.14894884E+02</pdfrwt>
<pdfrwt beam="2">  1       -2 0.99536585E+00 0.14894884E+02</pdfrwt>
<totfact>-0.52731524E-13</totfact>
</mgrwt>
</event>
<event>
 4    1 -0.5245809E-019  0.1499467E+02  0.7818608E-02  0.1868231E+00
          2   -1    0    0  501    0  0.00000000000E+00  0.00000000000E+00  0.12001850488E+03  0.12001850491E+03  0.25500000000E-02 0. -1.
         -2   -1    0    0    0  501 -0.00000000000E+00 -0.00000000000E+00 -0.46834109289E+00  0.46834803489E+00  0.25500000000E-02 0.  1.
         31    1    1    2    0    0  0.13892502943E+00 -0.77309825142E+00  0.56832462260E+02  0.57323683358E+02  0.74470750000E+01 0.  1.
        -31    1    1    2    0    0 -0.13892502943E+00  0.77309825142E+00  0.62717701526E+02  0.63163169583E+02  0.74470750000E+01 0.  1.
<mgrwt>
<rscale>  0 0.14994668E+02</rscale>
<asrwt>0</asrwt>
<pdfrwt beam="1">  1        2 0.99626960E+00 0.14994668E+02</pdfrwt>
<pdfrwt beam="2">  1       -2 0.99472084E+00 0.14994668E+02</pdfrwt>
<totfact>-0.10150346E-13</totfact>
</mgrwt>
</event>
<event>
 4    1 -0.5245809E-019  0.1494256E+02  0.7818608E-02  0.1869826E+00
         -2   -1    0    0    0  501 -0.00000000000E+00  0.00000000000E+00  0.11997144360E+03  0.11997144363E+03  0.25500000000E-02 0. -1.
          2   -1    0    0  501    0  0.00000000000E+00 -0.00000000000E+00 -0.46527386052E+00  0.46528084828E+00  0.25500000000E-02 0.  1.
         31    1    1    2    0    0 -0.34500569115E+00 -0.43376561388E+00  0.57881996249E+02  0.58361730589E+02  0.74470750000E+01 0.  1.
        -31    1    1    2    0    0  0.34500569115E+00  0.43376561388E+00  0.61624173490E+02  0.62074993885E+02  0.74470750000E+01 0. -1.
<mgrwt>
<rscale>  0 0.14942557E+02</rscale>
<asrwt>0</asrwt>
<pdfrwt beam="2">  1        2 0.98823003E+00 0.14942557E+02</pdfrwt>
<pdfrwt beam="1">  1       -2 0.99585510E+00 0.14942557E+02</pdfrwt>
<totfact>-0.20646745E-13</totfact>
</mgrwt>
</event>
<event>
 4    1  0.5245809E-019  0.1489593E+02  0.7818608E-02  0.1871261E+00
          2   -1    0    0  501    0  0.00000000000E+00  0.00000000000E+00  0.11959375844E+03  0.11959375846E+03  0.25500000000E-02 0.  1.
         -2   -1    0    0    0  501 -0.00000000000E+00 -0.00000000000E+00 -0.46383486929E+00  0.46384187873E+00  0.25500000000E-02 0. -1.
         31    1    1    2    0    0  0.10920528953E+00 -0.25296776705E-01  0.59776049631E+02  0.60238256957E+02  0.74470750000E+01 0.  1.
        -31    1    1    2    0    0 -0.10920528953E+00  0.25296776705E-01  0.59353873935E+02  0.59819343384E+02  0.74470750000E+01 0.  1.
<mgrwt>
<rscale>  0 0.14895929E+02</rscale>
<asrwt>0</asrwt>
<pdfrwt beam="1">  1        2 0.99272024E+00 0.14895929E+02</pdfrwt>
<pdfrwt beam="2">  1       -2 0.98517348E+00 0.14895929E+02</pdfrwt>
<totfact> 0.55578716E-13</totfact>
</mgrwt>
</event>
<event>
 4    1 -0.5245809E-019  0.1490840E+02  0.7818608E-02  0.1870876E+00
          2   -1    0    0  501    0  0.00000000000E+00  0.00000000000E+00  0.11866011952E+03  0.11866011954E+03  0.25500000000E-02 0.  1.
         -2   -1    0    0    0  501 -0.00000000000E+00 -0.00000000000E+00 -0.46826782508E+00  0.46827476817E+00  0.25500000000E-02 0. -1.
         31    1    1    2    0    0  0.15515451470E+00 -0.26078641931E+00  0.60045532379E+02  0.60506338240E+02  0.74470750000E+01 0.  1.
        -31    1    1    2    0    0 -0.15515451470E+00  0.26078641931E+00  0.58146319313E+02  0.58622056073E+02  0.74470750000E+01 0.  1.
<mgrwt>
<rscale>  0 0.14908405E+02</rscale>
<asrwt>0</asrwt>
<pdfrwt beam="1">  1        2 0.98503691E+00 0.14908405E+02</pdfrwt>
<pdfrwt beam="2">  1       -2 0.99452159E+00 0.14908405E+02</pdfrwt>
<totfact>-0.34527443E-13</totfact>
</mgrwt>
</event>
<event>
 4    1 -0.5245809E-019  0.1500576E+02  0.7818608E-02  0.1867893E+00
          2   -1    0    0  501    0  0.00000000000E+00  0.00000000000E+00  0.11985446334E+03  0.11985446337E+03  0.25500000000E-02 0.  1.
         -2   -1    0    0    0  501 -0.00000000000E+00 -0.00000000000E+00 -0.46967625114E+00  0.46968317341E+00  0.25500000000E-02 0. -1.
         31    1    1    2    0    0  0.62522642306E+00  0.66461912215E+00  0.59365654114E+02  0.59837884664E+02  0.74470750000E+01 0.  1.
        -31    1    1    2    0    0 -0.62522642306E+00 -0.66461912215E+00  0.60019132979E+02  0.60486261881E+02  0.74470750000E+01 0.  1.
<mgrwt>
<rscale>  0 0.15005761E+02</rscale>
<asrwt>0</asrwt>
<pdfrwt beam="1">  1        2 0.99492423E+00 0.15005761E+02</pdfrwt>
<pdfrwt beam="2">  1       -2 0.99754020E+00 0.15005761E+02</pdfrwt>
<totfact>-0.83880855E-14</totfact>
</mgrwt>
</event>
<event>
 4    1 -0.5245809E-019  0.1494987E+02  0.7818608E-02  0.1869602E+00
         -2   -1    0    0    0  501 -0.00000000000E+00  0.00000000000E+00  0.11962330754E+03  0.11962330756E+03  0.25500000000E-02 0. -1.
          2   -1    0    0  501    0  0.00000000000E+00 -0.00000000000E+00 -0.46708457412E+00  0.46709153480E+00  0.25500000000E-02 0.  1.
         31    1    1    2    0    0 -0.59946814522E+00 -0.20374521559E+00  0.60556046514E+02  0.61015527283E+02  0.74470750000E+01 0. -1.
        -31    1    1    2    0    0  0.59946814522E+00  0.20374521559E+00  0.58600176450E+02  0.59074871817E+02  0.74470750000E+01 0.  1.
<mgrwt>
<rscale>  0 0.14949866E+02</rscale>
<asrwt>0</asrwt>
<pdfrwt beam="2">  1        2 0.99204977E+00 0.14949866E+02</pdfrwt>
<pdfrwt beam="1">  1       -2 0.99299144E+00 0.14949866E+02</pdfrwt>
<totfact>-0.13064736E-13</totfact>
</mgrwt>
</event>
<event>
 4    1  0.5245809E-019  0.1491382E+02  0.7818608E-02  0.1870710E+00
         -2   -1    0    0    0  501 -0.00000000000E+00  0.00000000000E+00  0.11880148350E+03  0.11880148352E+03  0.25500000000E-02 0. -1.
          2   -1    0    0  501    0  0.00000000000E+00 -0.00000000000E+00 -0.46805059159E+00  0.46805753790E+00  0.25500000000E-02 0.  1.
         31    1    1    2    0    0  0.34785408793E+00 -0.15202932571E+00  0.58768531606E+02  0.59239710909E+02  0.74470750000E+01 0. -1.
        -31    1    1    2    0    0 -0.34785408793E+00  0.15202932571E+00  0.59564901298E+02  0.60029830152E+02  0.74470750000E+01 0. -1.
<mgrwt>
<rscale>  0 0.14913822E+02</rscale>
<asrwt>0</asrwt>
<pdfrwt beam="2">  1        2 0.99406669E+00 0.14913822E+02</pdfrwt>
<pdfrwt beam="1">  1       -2 0.98620401E+00 0.14913822E+02</pdfrwt>
<totfact> 0.36224956E-13</totfact>
</mgrwt>
</event>
<event>
 4    1  0.5245809E-019  0.1493200E+02  0.7818608E-02  0.1870151E+00
         -2   -1    0    0    0  501 -0.00000000000E+00  0.00000000000E+00  0.11852193164E+03  0.11852193167E+03  0.25500000000E-02 0. -1.
          2   -1    0    0  501    0  0.00000000000E+00 -0.00000000000E+00 -0.47029907847E+00  0.47030599158E+00  0.25500000000E-02 0.  1.
         31    1    1    2    0    0 -0.10476268879E+00  0.52045268570E+00  0.59184374386E+02  0.59653423571E+02  0.74470750000E+01 0. -1.
        -31    1    1    2    0    0  0.10476268879E+00 -0.52045268570E+00  0.58867258179E+02  0.59338814091E+02  0.74470750000E+01 0.  1.
<mgrwt>
<rscale>  0 0.14932002E+02</rscale>
<asrwt>0</asrwt>
<pdfrwt beam="2">  1        2 0.99881393E+00 0.14932002E+02</pdfrwt>
<pdfrwt beam="1">  1       -2 0.98391108E+00 0.14932002E+02</pdfrwt>
<totfact> 0.22992306E-13</totfact>
</mgrwt>
</event>
<event>
 4    1 -0.5245809E-019  0.1497573E+02  0.7818608E-02  0.1868810E+00
          2   -1    0    0  501    0  0.00000000000E+00  0.00000000000E+00  0.11946533386E+03  0.11946533389E+03  0.25500000000E-02 0. -1.
         -2   -1    0    0    0  501 -0.00000000000E+00 -0.00000000000E+00 -0.46932185104E+00  0.46932877854E+00  0.25500000000E-02 0.  1.
         31    1    1    2    0    0  0.26426721368E+00 -0.68296465950E+00  0.57335612927E+02  0.57821861901E+02  0.74470750000E+01 0.  1.
        -31    1    1    2    0    0 -0.26426721368E+00  0.68296465950E+00  0.61660399083E+02  0.62112800766E+02  0.74470750000E+01 0.  1.
<mgrwt>
<rscale>  0 0.14975728E+02</rscale>
<asrwt>0</asrwt>
<pdfrwt beam="1">  1        2 0.99170370E+00 0.14975728E+02</pdfrwt>
<pdfrwt beam="2">  1       -2 0.99677777E+00 0.14975728E+02</pdfrwt>
<totfact>-0.12963696E-13</totfact>
</mgrwt>
</event>
<event>
 4    1 -0.5245809E-019  0.1493969E+02  0.7818608E-02  0.1869914E+00
         -2   -1    0    0    0  501 -0.00000000000E+00  0.00000000000E+00  0.12002744761E+03  0.12002744764E+03  0.25500000000E-02 0. -1.
          2   -1    0    0  501    0  0.00000000000E+00 -0.00000000000E+00 -0.46487857459E+00  0.46488556830E+00  0.25500000000E-02 0.  1.
         31    1    1    2    0    0 -0.23085194740E+00 -0.22509307506E+00  0.55865474461E+02  0.56360572410E+02  0.74470750000E+01 0.  1.
        -31    1    1    2    0    0  0.23085194740E+00  0.22509307506E+00  0.63697094579E+02  0.64131760801E+02  0.74470750000E+01 0. -1.
<mgrwt>
<rscale>  0 0.14939694E+02</rscale>
<asrwt>0</asrwt>
<pdfrwt beam="2">  1        2 0.98739549E+00 0.14939694E+02</pdfrwt>
<pdfrwt beam="1">  1       -2 0.99631492E+00 0.14939694E+02</pdfrwt>
<totfact>-0.21834459E-13</totfact>
</mgrwt>
</event>
<event>
 4    1  0.5245809E-019  0.1490782E+02  0.7818608E-02  0.1870895E+00
         -2   -1    0    0    0  501 -0.00000000000E+00  0.00000000000E+00  0.11817239096E+03  0.11817239099E+03  0.25500000000E-02 0. -1.
          2   -1    0    0  501    0  0.00000000000E+00 -0.00000000000E+00 -0.47016333929E+00  0.47017025439E+00  0.25500000000E-02 0.  1.
         31    1    1    2    0    0 -0.35962563886E-01  0.56399257640E-02  0.61373901096E+02  0.61824072875E+02  0.74470750000E+01 0. -1.
        -31    1    1    2    0    0  0.35962563886E-01 -0.56399257640E-02  0.56328326524E+02  0.56818488366E+02  0.74470750000E+01 0.  1.
<mgrwt>
<rscale>  0 0.14907815E+02</rscale>
<asrwt>0</asrwt>
<pdfrwt beam="2">  1        2 0.99851513E+00 0.14907815E+02</pdfrwt>
<pdfrwt beam="1">  1       -2 0.98101971E+00 0.14907815E+02</pdfrwt>
<totfact> 0.51069671E-13</totfact>
</mgrwt>
</event>
<event>
 4    1 -0.5245809E-019  0.1494509E+02  0.7818608E-02  0.1869749E+00
         -2   -1    0    0    0  501 -0.00000000000E+00  0.00000000000E+00  0.12010830806E+03  0.12010830809E+03  0.25500000000E-02 0. -1.
          2   -1    0    0  501    0  0.00000000000E+00 -0.00000000000E+00 -0.46490125039E+00  0.46490824376E+00  0.25500000000E-02 0.  1.
         31    1    1    2    0    0  0.18710923037E+00 -0.46258562188E-02  0.64560216176E+02  0.64988579535E+02  0.74470750000E+01 0. -1.
        -31    1    1    2    0    0 -0.18710923037E+00  0.46258562188E-02  0.55083190634E+02  0.55584636796E+02  0.74470750000E+01 0.  1.
<mgrwt>
<rscale>  0 0.14945090E+02</rscale>
<asrwt>0</asrwt>
<pdfrwt beam="2">  1        2 0.98744603E+00 0.14945090E+02</pdfrwt>
<pdfrwt beam="1">  1       -2 0.99698371E+00 0.14945090E+02</pdfrwt>
<totfact>-0.19301763E-13</totfact>
</mgrwt>
</event>
<event>
 4    1 -0.5245809E-019  0.1497251E+02  0.7818608E-02  0.1868908E+00
         -2   -1    0    0    0  501 -0.00000000000E+00  0.00000000000E+00  0.11985183529E+03  0.11985183532E+03  0.25500000000E-02 0.  1.
          2   -1    0    0  501    0  0.00000000000E+00 -0.00000000000E+00 -0.46760738064E+00  0.46761433354E+00  0.25500000000E-02 0. -1.
         31    1    1    2    0    0 -0.74853630300E+00 -0.43550113145E-01  0.60908010125E+02  0.61366170050E+02  0.74470750000E+01 0. -1.
        -31    1    1    2    0    0  0.74853630300E+00  0.43550113145E-01  0.58476217784E+02  0.58953279600E+02  0.74470750000E+01 0.  1.
<mgrwt>
<rscale>  0 0.14972511E+02</rscale>
<asrwt>0</asrwt>
<pdfrwt beam="2">  1        2 0.99316320E+00 0.14972511E+02</pdfrwt>
<pdfrwt beam="1">  1       -2 0.99488539E+00 0.14972511E+02</pdfrwt>
<totfact>-0.13944333E-13</totfact>
</mgrwt>
</event>
<event>
 4    1 -0.5245809E-019  0.1498006E+02  0.7818608E-02  0.1868677E+00
          2   -1    0    0  501    0  0.00000000000E+00  0.00000000000E+00  0.11969223652E+03  0.11969223655E+03  0.25500000000E-02 0.  1.
         -2   -1    0    0    0  501 -0.00000000000E+00 -0.00000000000E+00 -0.46870345686E+00  0.46871039350E+00  0.25500000000E-02 0. -1.
         31    1    1    2    0    0  0.68003004430E+00 -0.71381291758E-02  0.56216476386E+02  0.56711671066E+02  0.74470750000E+01 0.  1.
        -31    1    1    2    0    0 -0.68003004430E+00  0.71381291758E-02  0.63007056678E+02  0.63449275875E+02  0.74470750000E+01 0.  1.
<mgrwt>
<rscale>  0 0.14980065E+02</rscale>
<asrwt>0</asrwt>
<pdfrwt beam="1">  1        2 0.99357478E+00 0.14980065E+02</pdfrwt>
<pdfrwt beam="2">  1       -2 0.99547691E+00 0.14980065E+02</pdfrwt>
<totfact>-0.13239165E-13</totfact>
</mgrwt>
</event>
<event>
 4    1 -0.5245809E-019  0.1492364E+02  0.7818608E-02  0.1870408E+00
          2   -1    0    0  501    0  0.00000000000E+00  0.00000000000E+00  0.11888895807E+03  0.11888895810E+03  0.25500000000E-02 0. -1.
         -2   -1    0    0    0  501 -0.00000000000E+00 -0.00000000000E+00 -0.46832239485E+00  0.46832933713E+00  0.25500000000E-02 0.  1.
         31    1    1    2    0    0 -0.44904172844E+00 -0.27436787922E-01  0.58153503614E+02  0.58630122803E+02  0.74470750000E+01 0.  1.
        -31    1    1    2    0    0  0.44904172844E+00  0.27436787922E-01  0.60267132061E+02  0.60727164631E+02  0.74470750000E+01 0.  1.
<mgrwt>
<rscale>  0 0.14923643E+02</rscale>
<asrwt>0</asrwt>
<pdfrwt beam="1">  1        2 0.98692956E+00 0.14923643E+02</pdfrwt>
<pdfrwt beam="2">  1       -2 0.99464455E+00 0.14923643E+02</pdfrwt>
<totfact>-0.25866997E-13</totfact>
</mgrwt>
</event>
<event>
 4    1  0.5245809E-019  0.1489672E+02  0.7818608E-02  0.1871237E+00
         -2   -1    0    0    0  501 -0.00000000000E+00  0.00000000000E+00  0.11799231938E+03  0.11799231941E+03  0.25500000000E-02 0.  1.
          2   -1    0    0  501    0  0.00000000000E+00 -0.00000000000E+00 -0.47018028275E+00  0.47018719760E+00  0.25500000000E-02 0. -1.
         31    1    1    2    0    0 -0.13646423072E-01 -0.11741141645E+00  0.59333166300E+02  0.59798808691E+02  0.74470750000E+01 0.  1.
        -31    1    1    2    0    0  0.13646423072E-01  0.11741141645E+00  0.58188972795E+02  0.58663697912E+02  0.74470750000E+01 0. -1.
<mgrwt>
<rscale>  0 0.14896721E+02</rscale>
<asrwt>0</asrwt>
<pdfrwt beam="2">  1        2 0.99854493E+00 0.14896721E+02</pdfrwt>
<pdfrwt beam="1">  1       -2 0.97953089E+00 0.14896721E+02</pdfrwt>
<totfact> 0.64890601E-13</totfact>
</mgrwt>
</event>
<event>
 4    1 -0.5245809E-019  0.1495225E+02  0.7818608E-02  0.1869529E+00
          2   -1    0    0  501    0  0.00000000000E+00  0.00000000000E+00  0.11976967131E+03  0.11976967133E+03  0.25500000000E-02 0. -1.
         -2   -1    0    0    0  501 -0.00000000000E+00 -0.00000000000E+00 -0.46666235769E+00  0.46666932466E+00  0.25500000000E-02 0.  1.
         31    1    1    2    0    0 -0.51419542573E+00 -0.26725729700E+00  0.57138426739E+02  0.57624600299E+02  0.74470750000E+01 0.  1.
        -31    1    1    2    0    0  0.51419542573E+00  0.26725729700E+00  0.62164582210E+02  0.62611740360E+02  0.74470750000E+01 0. -1.
<mgrwt>
<rscale>  0 0.14952246E+02</rscale>
<asrwt>0</asrwt>
<pdfrwt beam="1">  1        2 0.99419819E+00 0.14952246E+02</pdfrwt>
<pdfrwt beam="2">  1       -2 0.99116122E+00 0.14952246E+02</pdfrwt>
<totfact>-0.52348566E-14</totfact>
</mgrwt>
</event>
<event>
 4    1  0.5245809E-019  0.1494216E+02  0.7818608E-02  0.1869839E+00
          2   -1    0    0  501    0  0.00000000000E+00  0.00000000000E+00  0.12036653630E+03  0.12036653633E+03  0.25500000000E-02 0.  1.
         -2   -1    0    0    0  501 -0.00000000000E+00 -0.00000000000E+00 -0.46372198988E+00  0.46372900103E+00  0.25500000000E-02 0. -1.
         31    1    1    2    0    0  0.56207965871E+00 -0.17240493830E+00  0.60853767036E+02  0.61310566344E+02  0.74470750000E+01 0.  1.
        -31    1    1    2    0    0 -0.56207965871E+00  0.17240493830E+00  0.59049047273E+02  0.59519698982E+02  0.74470750000E+01 0. -1.
<mgrwt>
<rscale>  0 0.14942160E+02</rscale>
<asrwt>0</asrwt>
<pdfrwt beam="1">  1        2 0.99910917E+00 0.14942160E+02</pdfrwt>
<pdfrwt beam="2">  1       -2 0.98495909E+00 0.14942160E+02</pdfrwt>
<totfact> 0.13567237E-13</totfact>
</mgrwt>
</event>
<event>
 4    1  0.5245809E-019  0.1490834E+02  0.7818608E-02  0.1870879E+00
          2   -1    0    0  501    0  0.00000000000E+00  0.00000000000E+00  0.12037343491E+03  0.12037343494E+03  0.25500000000E-02 0. -1.
         -2   -1    0    0    0  501 -0.00000000000E+00 -0.00000000000E+00 -0.46159845009E+00  0.46160549350E+00  0.25500000000E-02 0.  1.
         31    1    1    2    0    0  0.12480840016E+00  0.14580004973E+00  0.57829058859E+02  0.58306910477E+02  0.74470750000E+01 0.  1.
        -31    1    1    2    0    0 -0.12480840016E+00 -0.14580004973E+00  0.62082777600E+02  0.62528129953E+02  0.74470750000E+01 0. -1.
<mgrwt>
<rscale>  0 0.14908336E+02</rscale>
<asrwt>0</asrwt>
<pdfrwt beam="1">  1        2 0.99914866E+00 0.14908336E+02</pdfrwt>
<pdfrwt beam="2">  1       -2 0.98046614E+00 0.14908336E+02</pdfrwt>
<totfact> 0.34673697E-13</totfact>
</mgrwt>
</event>
<event>
 4    1 -0.5245809E-019  0.1498587E+02  0.7818608E-02  0.1868500E+00
          2   -1    0    0  501    0  0.00000000000E+00  0.00000000000E+00  0.11957766282E+03  0.11957766285E+03  0.25500000000E-02 0. -1.
         -2   -1    0    0    0  501 -0.00000000000E+00 -0.00000000000E+00 -0.46951615195E+00  0.46952307658E+00  0.25500000000E-02 0.  1.
         31    1    1    2    0    0 -0.65195120130E-01  0.73371257657E+00  0.62578582256E+02  0.63024443415E+02  0.74470750000E+01 0. -1.
        -31    1    1    2    0    0  0.65195120130E-01 -0.73371257657E+00  0.56529564416E+02  0.57022742513E+02  0.74470750000E+01 0. -1.
<mgrwt>
<rscale>  0 0.14985868E+02</rscale>
<asrwt>0</asrwt>
<pdfrwt beam="1">  1        2 0.99263413E+00 0.14985868E+02</pdfrwt>
<pdfrwt beam="2">  1       -2 0.99719249E+00 0.14985868E+02</pdfrwt>
<totfact>-0.11084351E-13</totfact>
</mgrwt>
</event>
<event>
 4    1 -0.5245809E-019  0.1500478E+02  0.7818608E-02  0.1867923E+00
          2   -1    0    0  501    0  0.00000000000E+00  0.00000000000E+00  0.12012413336E+03  0.12012413339E+03  0.25500000000E-02 0. -1.
         -2   -1    0    0    0  501 -0.00000000000E+00 -0.00000000000E+00 -0.46856086666E+00  0.46856780540E+00  0.25500000000E-02 0.  1.
         31    1    1    2    0    0 -0.73905093149E+00  0.22836677458E+00  0.55985028646E+02  0.56483455154E+02  0.74470750000E+01 0.  1.
        -31    1    1    2    0    0  0.73905093149E+00 -0.22836677458E+00  0.63670543851E+02  0.64109246042E+02  0.74470750000E+01 0.  1.
<mgrwt>
<rscale>  0 0.15004784E+02</rscale>
<asrwt>0</asrwt>
<pdfrwt beam="1">  1        2 0.99714483E+00 0.15004784E+02</pdfrwt>
<pdfrwt beam="2">  1       -2 0.99518921E+00 0.15004784E+02</pdfrwt>
<totfact>-0.84654350E-14</totfact>
</mgrwt>
</event>
<event>
 4    1  0.5245809E-019  0.1490785E+02  0.7818608E-02  0.1870894E+00
          2   -1    0    0  501    0  0.00000000000E+00  0.00000000000E+00  0.12038385025E+03  0.12038385028E+03  0.25500000000E-02 0. -1.
         -2   -1    0    0    0  501 -0.00000000000E+00 -0.00000000000E+00 -0.46152838879E+00  0.46153543327E+00  0.25500000000E-02 0.  1.
         31    1    1    2    0    0 -0.37833633560E-01  0.29258972462E+00  0.60954803234E+02  0.61408745334E+02  0.74470750000E+01 0. -1.
        -31    1    1    2    0    0  0.37833633560E-01 -0.29258972462E+00  0.58967518632E+02  0.59436640381E+02  0.74470750000E+01 0.  1.
<mgrwt>
<rscale>  0 0.14907849E+02</rscale>
<asrwt>0</asrwt>
<pdfrwt beam="1">  1        2 0.99923420E+00 0.14907849E+02</pdfrwt>
<pdfrwt beam="2">  1       -2 0.98031822E+00 0.14907849E+02</pdfrwt>
<totfact> 0.32305620E-13</totfact>
</mgrwt>
</event>
<event>
 4    1 -0.5245809E-019  0.1492249E+02  0.7818608E-02  0.1870443E+00
         -2   -1    0    0    0  501 -0.00000000000E+00  0.00000000000E+00  0.12000084683E+03  0.12000084685E+03  0.25500000000E-02 0. -1.
          2   -1    0    0  501    0  0.00000000000E+00 -0.00000000000E+00 -0.46391110185E+00  0.46391811014E+00  0.25500000000E-02 0.  1.
         31    1    1    2    0    0 -0.36078928664E+00 -0.25132475222E+00  0.60848211898E+02  0.61303810243E+02  0.74470750000E+01 0.  1.
        -31    1    1    2    0    0  0.36078928664E+00  0.25132475222E+00  0.58688723826E+02  0.59160954720E+02  0.74470750000E+01 0.  1.
<mgrwt>
<rscale>  0 0.14922486E+02</rscale>
<asrwt>0</asrwt>
<pdfrwt beam="2">  1        2 0.98534769E+00 0.14922486E+02</pdfrwt>
<pdfrwt beam="1">  1       -2 0.99608696E+00 0.14922486E+02</pdfrwt>
<totfact>-0.30508516E-13</totfact>
</mgrwt>
</event>
<event>
 4    1  0.5245809E-019  0.1494773E+02  0.7818608E-02  0.1869668E+00
          2   -1    0    0  501    0  0.00000000000E+00  0.00000000000E+00  0.12026714924E+03  0.12026714927E+03  0.25500000000E-02 0.  1.
         -2   -1    0    0    0  501 -0.00000000000E+00 -0.00000000000E+00 -0.46445115757E+00  0.46445815771E+00  0.25500000000E-02 0. -1.
         31    1    1    2    0    0  0.60692947982E+00  0.84891295368E-01  0.58646306234E+02  0.59120417208E+02  0.74470750000E+01 0. -1.
        -31    1    1    2    0    0 -0.60692947982E+00 -0.84891295368E-01  0.61156391851E+02  0.61611190219E+02  0.74470750000E+01 0.  1.
<mgrwt>
<rscale>  0 0.14947728E+02</rscale>
<asrwt>0</asrwt>
<pdfrwt beam="1">  1        2 0.99829340E+00 0.14947728E+02</pdfrwt>
<pdfrwt beam="2">  1       -2 0.98649875E+00 0.14947728E+02</pdfrwt>
<totfact> 0.14487527E-13</totfact>
</mgrwt>
</event>
<event>
 4    1  0.5245809E-019  0.1493442E+02  0.7818608E-02  0.1870076E+00
         -2   -1    0    0    0  501 -0.00000000000E+00  0.00000000000E+00  0.11865716538E+03  0.11865716541E+03  0.25500000000E-02 0.  1.
          2   -1    0    0  501    0  0.00000000000E+00 -0.00000000000E+00 -0.46991499500E+00  0.46992191375E+00  0.25500000000E-02 0. -1.
         31    1    1    2    0    0  0.24869675358E+00 -0.17083053917E+00  0.62742343109E+02  0.63183475514E+02  0.74470750000E+01 0.  1.
        -31    1    1    2    0    0 -0.24869675358E+00  0.17083053917E+00  0.55444907280E+02  0.55943611812E+02  0.74470750000E+01 0. -1.
<mgrwt>
<rscale>  0 0.14934416E+02</rscale>
<asrwt>0</asrwt>
<pdfrwt beam="2">  1        2 0.99800595E+00 0.14934416E+02</pdfrwt>
<pdfrwt beam="1">  1       -2 0.98502611E+00 0.14934416E+02</pdfrwt>
<totfact> 0.26370654E-13</totfact>
</mgrwt>
</event>
<event>
 4    1 -0.5245809E-019  0.1491782E+02  0.7818608E-02  0.1870587E+00
         -2   -1    0    0    0  501 -0.00000000000E+00  0.00000000000E+00  0.12000260223E+03  0.12000260226E+03  0.25500000000E-02 0. -1.
          2   -1    0    0  501    0  0.00000000000E+00 -0.00000000000E+00 -0.46361449973E+00  0.46362151250E+00  0.25500000000E-02 0.  1.
         31    1    1    2    0    0 -0.34550352533E+00 -0.88627731129E-01  0.57977994864E+02  0.58455402163E+02  0.74470750000E+01 0. -1.
        -31    1    1    2    0    0  0.34550352533E+00  0.88627731129E-01  0.61560992869E+02  0.62010821609E+02  0.74470750000E+01 0. -1.
<mgrwt>
<rscale>  0 0.14917824E+02</rscale>
<asrwt>0</asrwt>
<pdfrwt beam="2">  1        2 0.98472019E+00 0.14917824E+02</pdfrwt>
<pdfrwt beam="1">  1       -2 0.99609902E+00 0.14917824E+02</pdfrwt>
<totfact>-0.33719473E-13</totfact>
</mgrwt>
</event>
<event>
 4    1 -0.5245809E-019  0.1492587E+02  0.7818608E-02  0.1870339E+00
          2   -1    0    0  501    0  0.00000000000E+00  0.00000000000E+00  0.11904559363E+03  0.11904559366E+03  0.25500000000E-02 0.  1.
         -2   -1    0    0    0  501 -0.00000000000E+00 -0.00000000000E+00 -0.46784570502E+00  0.46785265437E+00  0.25500000000E-02 0. -1.
         31    1    1    2    0    0  0.29493144608E+00  0.18426388330E+00  0.56567357273E+02  0.57056513850E+02  0.74470750000E+01 0. -1.
        -31    1    1    2    0    0 -0.29493144608E+00 -0.18426388330E+00  0.62010390654E+02  0.62456932464E+02  0.74470750000E+01 0.  1.
<mgrwt>
<rscale>  0 0.14925868E+02</rscale>
<asrwt>0</asrwt>
<pdfrwt beam="1">  1        2 0.98822079E+00 0.14925868E+02</pdfrwt>
<pdfrwt beam="2">  1       -2 0.99364124E+00 0.14925868E+02</pdfrwt>
<totfact>-0.20613855E-13</totfact>
</mgrwt>
</event>
<event>
 4    1 -0.5245809E-019  0.1499819E+02  0.7818608E-02  0.1868124E+00
          2   -1    0    0  501    0  0.00000000000E+00  0.00000000000E+00  0.11988526107E+03  0.11988526109E+03  0.25500000000E-02 0.  1.
         -2   -1    0    0    0  501 -0.00000000000E+00 -0.00000000000E+00 -0.46908165014E+00  0.46908858119E+00  0.25500000000E-02 0. -1.
         31    1    1    2    0    0  0.66851740300E+00  0.50295380177E+00  0.61943349091E+02  0.62395010223E+02  0.74470750000E+01 0.  1.
        -31    1    1    2    0    0 -0.66851740300E+00 -0.50295380177E+00  0.57472830327E+02  0.57959339453E+02  0.74470750000E+01 0. -1.
<mgrwt>
<rscale>  0 0.14998186E+02</rscale>
<asrwt>0</asrwt>
<pdfrwt beam="1">  1        2 0.99517397E+00 0.14998186E+02</pdfrwt>
<pdfrwt beam="2">  1       -2 0.99628327E+00 0.14998186E+02</pdfrwt>
<totfact>-0.10622307E-13</totfact>
</mgrwt>
</event>
<event>
 4    1  0.5245809E-019  0.1491026E+02  0.7818608E-02  0.1870819E+00
          2   -1    0    0  501    0  0.00000000000E+00  0.00000000000E+00  0.11964405056E+03  0.11964405059E+03  0.25500000000E-02 0.  1.
         -2   -1    0    0    0  501 -0.00000000000E+00 -0.00000000000E+00 -0.46453217246E+00  0.46453917139E+00  0.25500000000E-02 0. -1.
         31    1    1    2    0    0  0.32620127578E+00 -0.12855027433E-01  0.60523428854E+02  0.60980742360E+02  0.74470750000E+01 0.  1.
        -31    1    1    2    0    0 -0.32620127578E+00  0.12855027433E-01  0.58656089538E+02  0.59127847403E+02  0.74470750000E+01 0.  1.
<mgrwt>
<rscale>  0 0.14910256E+02</rscale>
<asrwt>0</asrwt>
<pdfrwt beam="1">  1        2 0.99314186E+00 0.14910256E+02</pdfrwt>
<pdfrwt beam="2">  1       -2 0.98665039E+00 0.14910256E+02</pdfrwt>
<totfact> 0.33030158E-13</totfact>
</mgrwt>
</event>
<event>
 4    1  0.5245809E-019  0.1491377E+02  0.7818608E-02  0.1870711E+00
         -2   -1    0    0    0  501 -0.00000000000E+00  0.00000000000E+00  0.11820567637E+03  0.11820567640E+03  0.25500000000E-02 0. -1.
          2   -1    0    0  501    0  0.00000000000E+00 -0.00000000000E+00 -0.47040676961E+00  0.47041368113E+00  0.25500000000E-02 0.  1.
         31    1    1    2    0    0  0.10543850302E+00  0.43531371783E-01  0.55963166817E+02  0.56456602612E+02  0.74470750000E+01 0.  1.
        -31    1    1    2    0    0 -0.10543850302E+00 -0.43531371783E-01  0.61772102783E+02  0.62219487466E+02  0.74470750000E+01 0. -1.
<mgrwt>
<rscale>  0 0.14913774E+02</rscale>
<asrwt>0</asrwt>
<pdfrwt beam="2">  1        2 0.99903117E+00 0.14913774E+02</pdfrwt>
<pdfrwt beam="1">  1       -2 0.98129695E+00 0.14913774E+02</pdfrwt>
<totfact> 0.33522216E-13</totfact>
</mgrwt>
</event>
<event>
 4    1 -0.5245809E-019  0.1490761E+02  0.7818608E-02  0.1870901E+00
          2   -1    0    0  501    0  0.00000000000E+00  0.00000000000E+00  0.11885954113E+03  0.11885954115E+03  0.25500000000E-02 0. -1.
         -2   -1    0    0    0  501 -0.00000000000E+00 -0.00000000000E+00 -0.46743231838E+00  0.46743927388E+00  0.25500000000E-02 0.  1.
         31    1    1    2    0    0  0.19418193710E+00 -0.12745964466E+00  0.57473168985E+02  0.57954102804E+02  0.74470750000E+01 0. -1.
        -31    1    1    2    0    0 -0.19418193710E+00  0.12745964466E+00  0.60918939823E+02  0.61372877624E+02  0.74470750000E+01 0. -1.
<mgrwt>
<rscale>  0 0.14907610E+02</rscale>
<asrwt>0</asrwt>
<pdfrwt beam="1">  1        2 0.98667896E+00 0.14907610E+02</pdfrwt>
<pdfrwt beam="2">  1       -2 0.99276064E+00 0.14907610E+02</pdfrwt>
<totfact>-0.22146930E-13</totfact>
</mgrwt>
</event>
<event>
 4    1 -0.5245809E-019  0.1490884E+02  0.7818608E-02  0.1870863E+00
          2   -1    0    0  501    0  0.00000000000E+00  0.00000000000E+00  0.11851772475E+03  0.11851772478E+03  0.25500000000E-02 0.  1.
         -2   -1    0    0    0  501 -0.00000000000E+00 -0.00000000000E+00 -0.46885758423E+00  0.46886451859E+00  0.25500000000E-02 0. -1.
         31    1    1    2    0    0 -0.11150726024E+00 -0.13403326657E+00  0.61267965653E+02  0.61719145653E+02  0.74470750000E+01 0.  1.
        -31    1    1    2    0    0  0.11150726024E+00  0.13403326657E+00  0.56780901516E+02  0.57267443646E+02  0.74470750000E+01 0. -1.
<mgrwt>
<rscale>  0 0.14908836E+02</rscale>
<asrwt>0</asrwt>
<pdfrwt beam="1">  1        2 0.98386437E+00 0.14908836E+02</pdfrwt>
<pdfrwt beam="2">  1       -2 0.99576448E+00 0.14908836E+02</pdfrwt>
<totfact>-0.40193125E-13</totfact>
</mgrwt>
</event>
<event>
 4    1 -0.5245809E-019  0.1490012E+02  0.7818608E-02  0.1871132E+00
          2   -1    0    0  501    0  0.00000000000E+00  0.00000000000E+00  0.11820810585E+03  0.11820810588E+03  0.25500000000E-02 0. -1.
         -2   -1    0    0    0  501 -0.00000000000E+00 -0.00000000000E+00 -0.46953612631E+00  0.46954305065E+00  0.25500000000E-02 0.  1.
         31    1    1    2    0    0 -0.18399574758E+00 -0.57325067285E-01  0.58187741585E+02  0.58662674141E+02  0.74470750000E+01 0.  1.
        -31    1    1    2    0    0  0.18399574758E+00  0.57325067285E-01  0.59550828138E+02  0.60014974786E+02  0.74470750000E+01 0. -1.
<mgrwt>
<rscale>  0 0.14900119E+02</rscale>
<asrwt>0</asrwt>
<pdfrwt beam="1">  1        2 0.98130984E+00 0.14900119E+02</pdfrwt>
<pdfrwt beam="2">  1       -2 0.99718956E+00 0.14900119E+02</pdfrwt>
<totfact>-0.49391159E-13</totfact>
</mgrwt>
</event>
<event>
 4    1 -0.5245809E-019  0.1498512E+02  0.7818608E-02  0.1868523E+00
         -2   -1    0    0    0  501 -0.00000000000E+00  0.00000000000E+00  0.11993698989E+03  0.11993698991E+03  0.25500000000E-02 0. -1.
          2   -1    0    0  501    0  0.00000000000E+00 -0.00000000000E+00 -0.46806264942E+00  0.46806959555E+00  0.25500000000E-02 0.  1.
         31    1    1    2    0    0  0.81064828150E+00  0.14254962179E+00  0.60098082368E+02  0.60563321420E+02  0.74470750000E+01 0. -1.
        -31    1    1    2    0    0 -0.81064828150E+00 -0.14254962179E+00  0.59370844869E+02  0.59841738089E+02  0.74470750000E+01 0. -1.
<mgrwt>
<rscale>  0 0.14985119E+02</rscale>
<asrwt>0</asrwt>
<pdfrwt beam="2">  1        2 0.99412913E+00 0.14985119E+02</pdfrwt>
<pdfrwt beam="1">  1       -2 0.99559328E+00 0.14985119E+02</pdfrwt>
<totfact>-0.12575334E-13</totfact>
</mgrwt>
</event>
<event>
 4    1 -0.5245809E-019  0.1497303E+02  0.7818608E-02  0.1868893E+00
         -2   -1    0    0    0  501 -0.00000000000E+00  0.00000000000E+00  0.12023175135E+03  0.12023175138E+03  0.25500000000E-02 0.  1.
          2   -1    0    0  501    0  0.00000000000E+00 -0.00000000000E+00 -0.46616218854E+00  0.46616916299E+00  0.25500000000E-02 0. -1.
         31    1    1    2    0    0 -0.29787111139E+00 -0.70616635760E+00  0.59560888785E+02  0.60029541037E+02  0.74470750000E+01 0. -1.
        -31    1    1    2    0    0  0.29787111139E+00  0.70616635760E+00  0.60204700375E+02  0.60668379502E+02  0.74470750000E+01 0.  1.
<mgrwt>
<rscale>  0 0.14973032E+02</rscale>
<asrwt>0</asrwt>
<pdfrwt beam="2">  1        2 0.99011778E+00 0.14973032E+02</pdfrwt>
<pdfrwt beam="1">  1       -2 0.99801486E+00 0.14973032E+02</pdfrwt>
<totfact>-0.10434529E-13</totfact>
</mgrwt>
</event>
<event>
 4    1  0.5245809E-019  0.1491334E+02  0.7818608E-02  0.1870725E+00
         -2   -1    0    0    0  501 -0.00000000000E+00  0.00000000000E+00  0.11872470556E+03  0.11872470558E+03  0.25500000000E-02 0. -1.
          2   -1    0    0  501    0  0.00000000000E+00 -0.00000000000E+00 -0.46832298045E+00  0.46832992272E+00  0.25500000000E-02 0.  1.
         31    1    1    2    0    0  0.27726808943E+00  0.11310441648E+00  0.57282539223E+02  0.57765369350E+02  0.74470750000E+01 0.  1.
        -31    1    1    2    0    0 -0.27726808943E+00 -0.11310441648E+00  0.60973843353E+02  0.61427666157E+02  0.74470750000E+01 0. -1.
<mgrwt>
<rscale>  0 0.14913339E+02</rscale>
<asrwt>0</asrwt>
<pdfrwt beam="2">  1        2 0.99464039E+00 0.14913339E+02</pdfrwt>
<pdfrwt beam="1">  1       -2 0.98557141E+00 0.14913339E+02</pdfrwt>
<totfact> 0.42409738E-13</totfact>
</mgrwt>
</event>
<event>
 4    1 -0.5245809E-019  0.1497125E+02  0.7818608E-02  0.1868947E+00
         -2   -1    0    0    0  501 -0.00000000000E+00  0.00000000000E+00  0.12006614434E+03  0.12006614437E+03  0.25500000000E-02 0. -1.
          2   -1    0    0  501    0  0.00000000000E+00 -0.00000000000E+00 -0.46669437161E+00  0.46670133811E+00  0.25500000000E-02 0.  1.
         31    1    1    2    0    0  0.61437384829E+00  0.43605149330E+00  0.60524000962E+02  0.60985090101E+02  0.74470750000E+01 0.  1.
        -31    1    1    2    0    0 -0.61437384829E+00 -0.43605149330E+00  0.59075449010E+02  0.59547755608E+02  0.74470750000E+01 0. -1.
<mgrwt>
<rscale>  0 0.14971254E+02</rscale>
<asrwt>0</asrwt>
<pdfrwt beam="2">  1        2 0.99123845E+00 0.14971254E+02</pdfrwt>
<pdfrwt beam="1">  1       -2 0.99664990E+00 0.14971254E+02</pdfrwt>
<totfact>-0.13750499E-13</totfact>
</mgrwt>
</event>
<event>
 4    1  0.5245809E-019  0.1494625E+02  0.7818608E-02  0.1869713E+00
          2   -1    0    0  501    0  0.00000000000E+00  0.00000000000E+00  0.12018586049E+03  0.12018586052E+03  0.25500000000E-02 0. -1.
         -2   -1    0    0    0  501 -0.00000000000E+00 -0.00000000000E+00 -0.46467348533E+00  0.46468048213E+00  0.25500000000E-02 0.  1.
         31    1    1    2    0    0 -0.11260615969E+00  0.28995194679E-01  0.64804895113E+02  0.65231486857E+02  0.74470750000E+01 0. -1.
        -31    1    1    2    0    0  0.11260615969E+00 -0.28995194679E-01  0.54916291896E+02  0.55419054147E+02  0.74470750000E+01 0.  1.
<mgrwt>
<rscale>  0 0.14946251E+02</rscale>
<asrwt>0</asrwt>
<pdfrwt beam="1">  1        2 0.99762309E+00 0.14946251E+02</pdfrwt>
<pdfrwt beam="2">  1       -2 0.98696658E+00 0.14946251E+02</pdfrwt>
<totfact> 0.15604192E-13</totfact>
</mgrwt>
</event>
<event>
 4    1 -0.5245809E-019  0.1491405E+02  0.7818608E-02  0.1870703E+00
         -2   -1    0    0    0  501 -0.00000000000E+00  0.00000000000E+00  0.11981496029E+03  0.11981496032E+03  0.25500000000E-02 0.  1.
          2   -1    0    0  501    0  0.00000000000E+00 -0.00000000000E+00 -0.46410576556E+00  0.46411277091E+00  0.25500000000E-02 0. -1.
         31    1    1    2    0    0 -0.73006842443E-01  0.17195706178E+00  0.56959469594E+02  0.57444538484E+02  0.74470750000E+01 0. -1.
        -31    1    1    2    0    0  0.73006842443E-01 -0.17195706178E+00  0.62391384931E+02  0.62834534603E+02  0.74470750000E+01 0.  1.
<mgrwt>
<rscale>  0 0.14914052E+02</rscale>
<asrwt>0</asrwt>
<pdfrwt beam="2">  1        2 0.98575366E+00 0.14914052E+02</pdfrwt>
<pdfrwt beam="1">  1       -2 0.99455153E+00 0.14914052E+02</pdfrwt>
<totfact>-0.30822602E-13</totfact>
</mgrwt>
</event>
<event>
 4    1 -0.5245809E-019  0.1493575E+02  0.7818608E-02  0.1870036E+00
          2   -1    0    0  501    0  0.00000000000E+00  0.00000000000E+00  0.11889190593E+03  0.11889190596E+03  0.25500000000E-02 0.  1.
         -2   -1    0    0    0  501 -0.00000000000E+00 -0.00000000000E+00 -0.46907075875E+00  0.46907768995E+00  0.25500000000E-02 0. -1.
         31    1    1    2    0    0  0.28784055018E+00  0.32689470340E+00  0.61985485762E+02  0.62432756495E+02  0.74470750000E+01 0.  1.
        -31    1    1    2    0    0 -0.28784055018E+00 -0.32689470340E+00  0.56437349408E+02  0.56928227151E+02  0.74470750000E+01 0. -1.
<mgrwt>
<rscale>  0 0.14935747E+02</rscale>
<asrwt>0</asrwt>
<pdfrwt beam="1">  1        2 0.98696013E+00 0.14935747E+02</pdfrwt>
<pdfrwt beam="2">  1       -2 0.99622779E+00 0.14935747E+02</pdfrwt>
<totfact>-0.23475519E-13</totfact>
</mgrwt>
</event>
<event>
 4    1  0.5245809E-019  0.1490072E+02  0.7818608E-02  0.1871113E+00
          2   -1    0    0  501    0  0.00000000000E+00  0.00000000000E+00  0.11984758771E+03  0.11984758774E+03  0.25500000000E-02 0.  1.
         -2   -1    0    0    0  501 -0.00000000000E+00 -0.00000000000E+00 -0.46315021636E+00  0.46315723617E+00  0.25500000000E-02 0. -1.
         31    1    1    2    0    0  0.17156245873E+00  0.57712930668E-01  0.58665511846E+02  0.59136570501E+02  0.74470750000E+01 0. -1.
        -31    1    1    2    0    0 -0.17156245873E+00 -0.57712930668E-01  0.60718925651E+02  0.61174174475E+02  0.74470750000E+01 0.  1.
<mgrwt>
<rscale>  0 0.14900719E+02</rscale>
<asrwt>0</asrwt>
<pdfrwt beam="1">  1        2 0.99481342E+00 0.14900719E+02</pdfrwt>
<pdfrwt beam="2">  1       -2 0.98373297E+00 0.14900719E+02</pdfrwt>
<totfact> 0.68606339E-13</totfact>
</mgrwt>
</event>
<event>
 4    1  0.5245809E-019  0.1494410E+02  0.7818608E-02  0.1869779E+00
         -2   -1    0    0    0  501 -0.00000000000E+00  0.00000000000E+00  0.11896511816E+03  0.11896511818E+03  0.25500000000E-02 0.  1.
          2   -1    0    0  501    0  0.00000000000E+00 -0.00000000000E+00 -0.46930659553E+00  0.46931352326E+00  0.25500000000E-02 0. -1.
         31    1    1    2    0    0 -0.34494792440E+00 -0.41507641204E+00  0.61527069311E+02  0.61978467725E+02  0.74470750000E+01 0.  1.
        -31    1    1    2    0    0  0.34494792440E+00  0.41507641204E+00  0.56968742251E+02  0.57455963983E+02  0.74470750000E+01 0.  1.
<mgrwt>
<rscale>  0 0.14944100E+02</rscale>
<asrwt>0</asrwt>
<pdfrwt beam="2">  1        2 0.99672910E+00 0.14944100E+02</pdfrwt>
<pdfrwt beam="1">  1       -2 0.98756745E+00 0.14944100E+02</pdfrwt>
<totfact> 0.14868009E-13</totfact>
</mgrwt>
</event>
<event>
 4    1 -0.5245809E-019  0.1492320E+02  0.7818608E-02  0.1870421E+00
          2   -1    0    0  501    0  0.00000000000E+00  0.00000000000E+00  0.11854609169E+03  0.11854609172E+03  0.25500000000E-02 0. -1.
         -2   -1    0    0    0  501 -0.00000000000E+00 -0.00000000000E+00 -0.46964902204E+00  0.46965594471E+00  0.25500000000E-02 0.  1.
         31    1    1    2    0    0 -0.14764112289E+00 -0.40912222992E+00  0.60357502972E+02  0.60816743336E+02  0.74470750000E+01 0. -1.
        -31    1    1    2    0    0  0.14764112289E+00  0.40912222992E+00  0.57718939698E+02  0.58199004329E+02  0.74470750000E+01 0. -1.
<mgrwt>
<rscale>  0 0.14923199E+02</rscale>
<asrwt>0</asrwt>
<pdfrwt beam="1">  1        2 0.98410547E+00 0.14923199E+02</pdfrwt>
<pdfrwt beam="2">  1       -2 0.99743962E+00 0.14923199E+02</pdfrwt>
<totfact>-0.28882817E-13</totfact>
</mgrwt>
</event>
<event>
 4    1 -0.5245809E-019  0.1492724E+02  0.7818608E-02  0.1870297E+00
          2   -1    0    0  501    0  0.00000000000E+00  0.00000000000E+00  0.11859580215E+03  0.11859580217E+03  0.25500000000E-02 0.  1.
         -2   -1    0    0    0  501 -0.00000000000E+00 -0.00000000000E+00 -0.46970639465E+00  0.46971331648E+00  0.25500000000E-02 0. -1.
         31    1    1    2    0    0 -0.40110121059E+00  0.11829826939E+00  0.56925469480E+02  0.57412044714E+02  0.74470750000E+01 0. -1.
        -31    1    1    2    0    0  0.40110121059E+00 -0.11829826939E+00  0.61200626272E+02  0.61653470777E+02  0.74470750000E+01 0. -1.
<mgrwt>
<rscale>  0 0.14927240E+02</rscale>
<asrwt>0</asrwt>
<pdfrwt beam="1">  1        2 0.98451699E+00 0.14927240E+02</pdfrwt>
<pdfrwt beam="2">  1       -2 0.99756264E+00 0.14927240E+02</pdfrwt>
<totfact>-0.26022642E-13</totfact>
</mgrwt>
</event>
<event>
 4    1  0.5245809E-019  0.1496132E+02  0.7818608E-02  0.1869251E+00
         -2   -1    0    0    0  501 -0.00000000000E+00  0.00000000000E+00  0.11897507785E+03  0.11897507787E+03  0.25500000000E-02 0.  1.
          2   -1    0    0  501    0  0.00000000000E+00 -0.00000000000E+00 -0.47034944555E+00  0.47035635791E+00  0.25500000000E-02 0. -1.
         31    1    1    2    0    0 -0.34777732135E+00  0.35527460956E+00  0.55227313690E+02  0.55729366339E+02  0.74470750000E+01 0. -1.
        -31    1    1    2    0    0  0.34777732135E+00 -0.35527460956E+00  0.63277414710E+02  0.63716067892E+02  0.74470750000E+01 0.  1.
<mgrwt>
<rscale>  0 0.14961320E+02</rscale>
<asrwt>0</asrwt>
<pdfrwt beam="2">  1        2 0.99893552E+00 0.14961320E+02</pdfrwt>
<pdfrwt beam="1">  1       -2 0.98765842E+00 0.14961320E+02</pdfrwt>
<totfact> 0.58946688E-14</totfact>
</mgrwt>
</event>
<event>
 4    1  0.5245809E-019  0.1493626E+02  0.7818608E-02  0.1870020E+00
         -2   -1    0    0    0  501 -0.00000000000E+00  0.00000000000E+00  0.11853062053E+03  0.11853062055E+03  0.25500000000E-02 0.  1.
          2   -1    0    0  501    0  0.00000000000E+00 -0.00000000000E+00 -0.47053287562E+00  0.47053978528E+00  0.25500000000E-02 0. -1.
         31    1    1    2    0    0  0.86102875297E-01 -0.46620734612E+00  0.61410609585E+02  0.61862320185E+02  0.74470750000E+01 0.  1.
        -31    1    1    2    0    0 -0.86102875297E-01  0.46620734612E+00  0.56649478066E+02  0.57138840155E+02  0.74470750000E+01 0. -1.
<mgrwt>
<rscale>  0 0.14936260E+02</rscale>
<asrwt>0</asrwt>
<pdfrwt beam="2">  1        2 0.99930879E+00 0.14936260E+02</pdfrwt>
<pdfrwt beam="1">  1       -2 0.98398485E+00 0.14936260E+02</pdfrwt>
<totfact> 0.13900836E-13</totfact>
</mgrwt>
</event>
<event>
 4    1  0.5245809E-019  0.1492178E+02  0.7818608E-02  0.1870465E+00
         -2   -1    0    0    0  501 -0.00000000000E+00  0.00000000000E+00  0.11840005311E+03  0.11840005313E+03  0.25500000000E-02 0.  1.
          2   -1    0    0  501    0  0.00000000000E+00 -0.00000000000E+00 -0.47013878027E+00  0.47014569573E+00  0.25500000000E-02 0. -1.
         31    1    1    2    0    0 -0.43947197341E+00 -0.29877544990E-01  0.58095402337E+02  0.58572422923E+02  0.74470750000E+01 0. -1.
        -31    1    1    2    0    0  0.43947197341E+00  0.29877544990E-01  0.59834511989E+02  0.60297775907E+02  0.74470750000E+01 0. -1.
<mgrwt>
<rscale>  0 0.14921779E+02</rscale>
<asrwt>0</asrwt>
<pdfrwt beam="2">  1        2 0.99847078E+00 0.14921779E+02</pdfrwt>
<pdfrwt beam="1">  1       -2 0.98290197E+00 0.14921779E+02</pdfrwt>
<totfact> 0.35996643E-13</totfact>
</mgrwt>
</event>
<event>
 4    1  0.5245809E-019  0.1491007E+02  0.7818608E-02  0.1870825E+00
          2   -1    0    0  501    0  0.00000000000E+00  0.00000000000E+00  0.11967443128E+03  0.11967443131E+03  0.25500000000E-02 0. -1.
         -2   -1    0    0    0  501 -0.00000000000E+00 -0.00000000000E+00 -0.46440266804E+00  0.46440966891E+00  0.25500000000E-02 0.  1.
         31    1    1    2    0    0 -0.42878144133E-01  0.12835918619E+00  0.62156943903E+02  0.62601620714E+02  0.74470750000E+01 0. -1.
        -31    1    1    2    0    0  0.42878144133E-01 -0.12835918619E+00  0.57053084714E+02  0.57537220267E+02  0.74470750000E+01 0.  1.
<mgrwt>
<rscale>  0 0.14910070E+02</rscale>
<asrwt>0</asrwt>
<pdfrwt beam="1">  1        2 0.99339199E+00 0.14910070E+02</pdfrwt>
<pdfrwt beam="2">  1       -2 0.98637736E+00 0.14910070E+02</pdfrwt>
<totfact> 0.35895551E-13</totfact>
</mgrwt>
</event>
<event>
 4    1 -0.5245809E-019  0.1490433E+02  0.7818608E-02  0.1871002E+00
         -2   -1    0    0    0  501 -0.00000000000E+00  0.00000000000E+00  0.12012062956E+03  0.12012062958E+03  0.25500000000E-02 0. -1.
          2   -1    0    0  501    0  0.00000000000E+00 -0.00000000000E+00 -0.46232137922E+00  0.46232841161E+00  0.25500000000E-02 0.  1.
         31    1    1    2    0    0 -0.14646687349E+00 -0.20520686499E-01  0.61708530191E+02  0.62156443737E+02  0.74470750000E+01 0. -1.
        -31    1    1    2    0    0  0.14646687349E+00  0.20520686499E-01  0.57949777985E+02  0.58426514257E+02  0.74470750000E+01 0. -1.
<mgrwt>
<rscale>  0 0.14904330E+02</rscale>
<asrwt>0</asrwt>
<pdfrwt beam="2">  1        2 0.98198788E+00 0.14904330E+02</pdfrwt>
<pdfrwt beam="1">  1       -2 0.99706426E+00 0.14904330E+02</pdfrwt>
<totfact>-0.45374756E-13</totfact>
</mgrwt>
</event>
<event>
 4    1 -0.5245809E-019  0.1490408E+02  0.7818608E-02  0.1871010E+00
          2   -1    0    0  501    0  0.00000000000E+00  0.00000000000E+00  0.11869704881E+03  0.11869704884E+03  0.25500000000E-02 0. -1.
         -2   -1    0    0    0  501 -0.00000000000E+00 -0.00000000000E+00 -0.46785069650E+00  0.46785764578E+00  0.25500000000E-02 0.  1.
         31    1    1    2    0    0 -0.12625918863E+00  0.16367172704E+00  0.60528162221E+02  0.60984916805E+02  0.74470750000E+01 0. -1.
        -31    1    1    2    0    0  0.12625918863E+00 -0.16367172704E+00  0.57701035891E+02  0.58179989676E+02  0.74470750000E+01 0. -1.
<mgrwt>
<rscale>  0 0.14904082E+02</rscale>
<asrwt>0</asrwt>
<pdfrwt beam="1">  1        2 0.98533882E+00 0.14904082E+02</pdfrwt>
<pdfrwt beam="2">  1       -2 0.99364038E+00 0.14904082E+02</pdfrwt>
<totfact>-0.31218691E-13</totfact>
</mgrwt>
</event>
<event>
 4    1 -0.5245809E-019  0.1493236E+02  0.7818608E-02  0.1870140E+00
         -2   -1    0    0    0  501 -0.00000000000E+00  0.00000000000E+00  0.11981325338E+03  0.11981325341E+03  0.25500000000E-02 0.  1.
          2   -1    0    0  501    0  0.00000000000E+00 -0.00000000000E+00 -0.46525273277E+00  0.46525972085E+00  0.25500000000E-02 0. -1.
         31    1    1    2    0    0 -0.19585597481E-03  0.53238955128E+00  0.59986039541E+02  0.60448881748E+02  0.74470750000E+01 0.  1.
        -31    1    1    2    0    0  0.19585597481E-03 -0.53238955128E+00  0.59361961106E+02  0.59829631380E+02  0.74470750000E+01 0. -1.
<mgrwt>
<rscale>  0 0.14932363E+02</rscale>
<asrwt>0</asrwt>
<pdfrwt beam="2">  1        2 0.98818029E+00 0.14932363E+02</pdfrwt>
<pdfrwt beam="1">  1       -2 0.99454690E+00 0.14932363E+02</pdfrwt>
<totfact>-0.21838369E-13</totfact>
</mgrwt>
</event>
<event>
 4    1 -0.5245809E-019  0.1494544E+02  0.7818608E-02  0.1869738E+00
          2   -1    0    0  501    0  0.00000000000E+00  0.00000000000E+00  0.11878671660E+03  0.11878671663E+03  0.25500000000E-02 0. -1.
         -2   -1    0    0    0  501 -0.00000000000E+00 -0.00000000000E+00 -0.47009550791E+00  0.47010242400E+00  0.25500000000E-02 0.  1.
         31    1    1    2    0    0 -0.44555485921E+00 -0.42598934972E+00  0.59565482082E+02  0.60032370999E+02  0.74470750000E+01 0.  1.
        -31    1    1    2    0    0  0.44555485921E+00  0.42598934972E+00  0.58751139013E+02  0.59224448056E+02  0.74470750000E+01 0.  1.
<mgrwt>
<rscale>  0 0.14945436E+02</rscale>
<asrwt>0</asrwt>
<pdfrwt beam="1">  1        2 0.98609882E+00 0.14945436E+02</pdfrwt>
<pdfrwt beam="2">  1       -2 0.99839210E+00 0.14945436E+02</pdfrwt>
<totfact>-0.14472616E-13</totfact>
</mgrwt>
</event>
<event>
 4    1 -0.5245809E-019  0.1500848E+02  0.7818608E-02  0.1867810E+00
         -2   -1    0    0    0  501 -0.00000000000E+00  0.00000000000E+00  0.11961634791E+03  0.11961634794E+03  0.25500000000E-02 0. -1.
          2   -1    0    0  501    0  0.00000000000E+00 -0.00000000000E+00 -0.47078181971E+00  0.47078872573E+00  0.25500000000E-02 0.  1.
         31    1    1    2    0    0 -0.53554215017E+00  0.64150700144E+00  0.62736636987E+02  0.63182615356E+02  0.74470750000E+01 0. -1.
        -31    1    1    2    0    0  0.53554215017E+00 -0.64150700144E+00  0.56408929106E+02  0.56904521310E+02  0.74470750000E+01 0.  1.
<mgrwt>
<rscale>  0 0.15008480E+02</rscale>
<asrwt>0</asrwt>
<pdfrwt beam="2">  1        2 0.99987129E+00 0.15008480E+02</pdfrwt>
<pdfrwt beam="1">  1       -2 0.99296447E+00 0.15008480E+02</pdfrwt>
<totfact>-0.44675169E-15</totfact>
</mgrwt>
</event>
<event>
 4    1 -0.5245809E-019  0.1491451E+02  0.7818608E-02  0.1870689E+00
         -2   -1    0    0    0  501 -0.00000000000E+00  0.00000000000E+00  0.12001442758E+03  0.12001442760E+03  0.25500000000E-02 0.  1.
          2   -1    0    0  501    0  0.00000000000E+00 -0.00000000000E+00 -0.46336262306E+00  0.46336963965E+00  0.25500000000E-02 0. -1.
         31    1    1    2    0    0 -0.27596033736E-01 -0.38791436633E+00  0.59602446996E+02  0.60067144539E+02  0.74470750000E+01 0. -1.
        -31    1    1    2    0    0  0.27596033736E-01  0.38791436633E+00  0.59948617957E+02  0.60410652704E+02  0.74470750000E+01 0.  1.
<mgrwt>
<rscale>  0 0.14914506E+02</rscale>
<asrwt>0</asrwt>
<pdfrwt beam="2">  1        2 0.98418765E+00 0.14914506E+02</pdfrwt>
<pdfrwt beam="1">  1       -2 0.99619472E+00 0.14914506E+02</pdfrwt>
<totfact>-0.36392664E-13</totfact>
</mgrwt>
</event>
<event>
 4    1 -0.5245809E-019  0.1501724E+02  0.7818608E-02  0.1867543E+00
         -2   -1    0    0    0  501 -0.00000000000E+00  0.00000000000E+00  0.11977819596E+03  0.11977819598E+03  0.25500000000E-02 0.  1.
          2   -1    0    0  501    0  0.00000000000E+00 -0.00000000000E+00 -0.47069443446E+00  0.47070134175E+00  0.25500000000E-02 0. -1.
         31    1    1    2    0    0  0.55526048926E+00 -0.56931328809E+00  0.63950887995E+02  0.64387944781E+02  0.74470750000E+01 0.  1.
        -31    1    1    2    0    0 -0.55526048926E+00  0.56931328809E+00  0.55356613528E+02  0.55860952545E+02  0.74470750000E+01 0. -1.
<mgrwt>
<rscale>  0 0.15017236E+02</rscale>
<asrwt>0</asrwt>
<pdfrwt beam="2">  1        2 0.99969172E+00 0.15017236E+02</pdfrwt>
<pdfrwt beam="1">  1       -2 0.99430202E+00 0.15017236E+02</pdfrwt>
<totfact>-0.12100416E-14</totfact>
</mgrwt>
</event>
<event>
 4    1  0.5245809E-019  0.1490591E+02  0.7818608E-02  0.1870953E+00
          2   -1    0    0  501    0  0.00000000000E+00  0.00000000000E+00  0.11952895532E+03  0.11952895535E+03  0.25500000000E-02 0.  1.
         -2   -1    0    0    0  501 -0.00000000000E+00 -0.00000000000E+00 -0.46470820072E+00  0.46471519699E+00  0.25500000000E-02 0. -1.
         31    1    1    2    0    0 -0.26788855002E+00  0.10977451254E+00  0.59038084140E+02  0.59506622486E+02  0.74470750000E+01 0. -1.
        -31    1    1    2    0    0  0.26788855002E+00 -0.10977451254E+00  0.60026162980E+02  0.60487048059E+02  0.74470750000E+01 0.  1.
<mgrwt>
<rscale>  0 0.14905906E+02</rscale>
<asrwt>0</asrwt>
<pdfrwt beam="1">  1        2 0.99219162E+00 0.14905906E+02</pdfrwt>
<pdfrwt beam="2">  1       -2 0.98701914E+00 0.14905906E+02</pdfrwt>
<totfact> 0.30507034E-13</totfact>
</mgrwt>
</event>
<event>
 4    1 -0.5245809E-019  0.1498757E+02  0.7818608E-02  0.1868448E+00
          2   -1    0    0  501    0  0.00000000000E+00  0.00000000000E+00  0.11971438591E+03  0.11971438594E+03  0.25500000000E-02 0.  1.
         -2   -1    0    0    0  501 -0.00000000000E+00 -0.00000000000E+00 -0.46908645229E+00  0.46909338327E+00  0.25500000000E-02 0. -1.
         31    1    1    2    0    0  0.76771569554E+00 -0.19435006904E+00  0.61755268580E+02  0.62207710798E+02  0.74470750000E+01 0. -1.
        -31    1    1    2    0    0 -0.76771569554E+00  0.19435006904E+00  0.57490030877E+02  0.57975768521E+02  0.74470750000E+01 0. -1.
<mgrwt>
<rscale>  0 0.14987570E+02</rscale>
<asrwt>0</asrwt>
<pdfrwt beam="1">  1        2 0.99376110E+00 0.14987570E+02</pdfrwt>
<pdfrwt beam="2">  1       -2 0.99628789E+00 0.14987570E+02</pdfrwt>
<totfact>-0.12066040E-13</totfact>
</mgrwt>
</event>
<event>
 4    1 -0.5245809E-019  0.1493845E+02  0.7818608E-02  0.1869952E+00
         -2   -1    0    0    0  501 -0.00000000000E+00  0.00000000000E+00  0.11970381452E+03  0.11970381455E+03  0.25500000000E-02 0.  1.
          2   -1    0    0  501    0  0.00000000000E+00 -0.00000000000E+00 -0.46605807233E+00  0.46606504834E+00  0.25500000000E-02 0. -1.
         31    1    1    2    0    0 -0.31766579537E+00 -0.39439901030E+00  0.57431150623E+02  0.57914181770E+02  0.74470750000E+01 0.  1.
        -31    1    1    2    0    0  0.31766579537E+00  0.39439901030E+00  0.61806605827E+02  0.62255697828E+02  0.74470750000E+01 0.  1.
<mgrwt>
<rscale>  0 0.14938454E+02</rscale>
<asrwt>0</asrwt>
<pdfrwt beam="2">  1        2 0.98988064E+00 0.14938454E+02</pdfrwt>
<pdfrwt beam="1">  1       -2 0.99364864E+00 0.14938454E+02</pdfrwt>
<totfact>-0.17164574E-13</totfact>
</mgrwt>
</event>
<event>
 4    1 -0.5245809E-019  0.1495750E+02  0.7818608E-02  0.1869368E+00
         -2   -1    0    0    0  501 -0.00000000000E+00  0.00000000000E+00  0.12003839608E+03  0.12003839610E+03  0.25500000000E-02 0. -1.
          2   -1    0    0  501    0  0.00000000000E+00 -0.00000000000E+00 -0.46594469133E+00  0.46595166904E+00  0.25500000000E-02 0.  1.
         31    1    1    2    0    0  0.28665251592E+00 -0.55105899183E+00  0.57411092344E+02  0.57895408158E+02  0.74470750000E+01 0.  1.
        -31    1    1    2    0    0 -0.28665251592E+00  0.55105899183E+00  0.62161359042E+02  0.62608939615E+02  0.74470750000E+01 0. -1.
<mgrwt>
<rscale>  0 0.14957497E+02</rscale>
<asrwt>0</asrwt>
<pdfrwt beam="2">  1        2 0.98965146E+00 0.14957497E+02</pdfrwt>
<pdfrwt beam="1">  1       -2 0.99641426E+00 0.14957497E+02</pdfrwt>
<totfact>-0.16452858E-13</totfact>
</mgrwt>
</event>
<event>
 4    1  0.5245809E-019  0.1492986E+02  0.7818608E-02  0.1870216E+00
         -2   -1    0    0    0  501 -0.00000000000E+00  0.00000000000E+00  0.11906326639E+03  0.11906326641E+03  0.25500000000E-02 0.  1.
          2   -1    0    0  501    0  0.00000000000E+00 -0.00000000000E+00 -0.46802661071E+00  0.46803355738E+00  0.25500000000E-02 0. -1.
         31    1    1    2    0    0 -0.48111478405E-01 -0.33304254201E+00  0.62429623598E+02  0.62873126698E+02  0.74470750000E+01 0. -1.
        -31    1    1    2    0    0  0.48111478405E-01  0.33304254201E+00  0.56165616178E+02  0.56658173274E+02  0.74470750000E+01 0. -1.
<mgrwt>
<rscale>  0 0.14929862E+02</rscale>
<asrwt>0</asrwt>
<pdfrwt beam="2">  1        2 0.99402453E+00 0.14929862E+02</pdfrwt>
<pdfrwt beam="1">  1       -2 0.98836842E+00 0.14929862E+02</pdfrwt>
<totfact> 0.13165153E-13</totfact>
</mgrwt>
</event>
<event>
 4    1  0.5245809E-019  0.1490329E+02  0.7818608E-02  0.1871034E+00
          2   -1    0    0  501    0  0.00000000000E+00  0.00000000000E+00  0.11994692698E+03  0.11994692700E+03  0.25500000000E-02 0. -1.
         -2   -1    0    0    0  501 -0.00000000000E+00 -0.00000000000E+00 -0.46292648973E+00  0.46293351293E+00  0.25500000000E-02 0.  1.
         31    1    1    2    0    0 -0.38999239235E-01  0.22095772872E+00  0.58665132110E+02  0.59136342420E+02  0.74470750000E+01 0.  1.
        -31    1    1    2    0    0  0.38999239235E-01 -0.22095772872E+00  0.60818868377E+02  0.61273518097E+02  0.74470750000E+01 0.  1.
<mgrwt>
<rscale>  0 0.14903293E+02</rscale>
<asrwt>0</asrwt>
<pdfrwt beam="1">  1        2 0.99563297E+00 0.14903293E+02</pdfrwt>
<pdfrwt beam="2">  1       -2 0.98326274E+00 0.14903293E+02</pdfrwt>
<totfact> 0.69857254E-13</totfact>
</mgrwt>
</event>
<event>
 4    1 -0.5245809E-019  0.1492088E+02  0.7818608E-02  0.1870493E+00
         -2   -1    0    0    0  501 -0.00000000000E+00  0.00000000000E+00  0.12028586395E+03  0.12028586398E+03  0.25500000000E-02 0. -1.
          2   -1    0    0  501    0  0.00000000000E+00 -0.00000000000E+00 -0.46271207714E+00  0.46271910359E+00  0.25500000000E-02 0.  1.
         31    1    1    2    0    0  0.27275013044E+00 -0.35327401602E+00  0.59953303961E+02  0.60415699757E+02  0.74470750000E+01 0.  1.
        -31    1    1    2    0    0 -0.27275013044E+00  0.35327401602E+00  0.59869847911E+02  0.60332883324E+02  0.74470750000E+01 0.  1.
<mgrwt>
<rscale>  0 0.14920878E+02</rscale>
<asrwt>0</asrwt>
<pdfrwt beam="2">  1        2 0.98281972E+00 0.14920878E+02</pdfrwt>
<pdfrwt beam="1">  1       -2 0.99843377E+00 0.14920878E+02</pdfrwt>
<totfact>-0.24200607E-13</totfact>
</mgrwt>
</event>
<event>
 4    1  0.5245809E-019  0.1490023E+02  0.7818608E-02  0.1871128E+00
         -2   -1    0    0    0  501 -0.00000000000E+00  0.00000000000E+00  0.11820407534E+03  0.11820407537E+03  0.25500000000E-02 0.  1.
          2   -1    0    0  501    0  0.00000000000E+00 -0.00000000000E+00 -0.46955889183E+00  0.46956581583E+00  0.25500000000E-02 0. -1.
         31    1    1    2    0    0 -0.82723743436E-01  0.44716062887E-01  0.57347336293E+02  0.57828926574E+02  0.74470750000E+01 0. -1.
        -31    1    1    2    0    0  0.82723743436E-01 -0.44716062887E-01  0.60387180159E+02  0.60844714613E+02  0.74470750000E+01 0.  1.
<mgrwt>
<rscale>  0 0.14900226E+02</rscale>
<asrwt>0</asrwt>
<pdfrwt beam="2">  1        2 0.99723758E+00 0.14900226E+02</pdfrwt>
<pdfrwt beam="1">  1       -2 0.98127670E+00 0.14900226E+02</pdfrwt>
<totfact> 0.78697479E-13</totfact>
</mgrwt>
</event>
<event>
 4    1  0.5245809E-019  0.1494206E+02  0.7818608E-02  0.1869842E+00
         -2   -1    0    0    0  501 -0.00000000000E+00  0.00000000000E+00  0.11912318889E+03  0.11912318891E+03  0.25500000000E-02 0. -1.
          2   -1    0    0  501    0  0.00000000000E+00 -0.00000000000E+00 -0.46855572434E+00  0.46856266316E+00  0.25500000000E-02 0.  1.
         31    1    1    2    0    0 -0.54189013653E+00  0.25113465638E+00  0.59126583560E+02  0.59596715707E+02  0.74470750000E+01 0.  1.
        -31    1    1    2    0    0  0.54189013653E+00 -0.25113465638E+00  0.59528049602E+02  0.59995035870E+02  0.74470750000E+01 0.  1.
<mgrwt>
<rscale>  0 0.14942057E+02</rscale>
<asrwt>0</asrwt>
<pdfrwt beam="2">  1        2 0.99514584E+00 0.14942057E+02</pdfrwt>
<pdfrwt beam="1">  1       -2 0.98886828E+00 0.14942057E+02</pdfrwt>
<totfact> 0.80727723E-14</totfact>
</mgrwt>
</event>
<event>
 4    1  0.5245809E-019  0.1492233E+02  0.7818608E-02  0.1870448E+00
         -2   -1    0    0    0  501 -0.00000000000E+00  0.00000000000E+00  0.11857156470E+03  0.11857156472E+03  0.25500000000E-02 0. -1.
          2   -1    0    0  501    0  0.00000000000E+00 -0.00000000000E+00 -0.46949322689E+00  0.46950015186E+00  0.25500000000E-02 0.  1.
         31    1    1    2    0    0  0.12129577770E+00 -0.40728847482E+00  0.60419748429E+02  0.60878448755E+02  0.74470750000E+01 0. -1.
        -31    1    1    2    0    0 -0.12129577770E+00  0.40728847482E+00  0.57682323041E+02  0.58162616121E+02  0.74470750000E+01 0. -1.
<mgrwt>
<rscale>  0 0.14922327E+02</rscale>
<asrwt>0</asrwt>
<pdfrwt beam="2">  1        2 0.99711090E+00 0.14922327E+02</pdfrwt>
<pdfrwt beam="1">  1       -2 0.98431481E+00 0.14922327E+02</pdfrwt>
<totfact> 0.41954151E-13</totfact>
</mgrwt>
</event>
<event>
 4    1  0.5245809E-019  0.1491829E+02  0.7818608E-02  0.1870572E+00
         -2   -1    0    0    0  501 -0.00000000000E+00  0.00000000000E+00  0.11856596822E+03  0.11856596825E+03  0.25500000000E-02 0. -1.
          2   -1    0    0  501    0  0.00000000000E+00 -0.00000000000E+00 -0.46926169365E+00  0.46926862204E+00  0.25500000000E-02 0.  1.
         31    1    1    2    0    0  0.36817085699E+00 -0.18077173053E+00  0.59912417570E+02  0.60374870048E+02  0.74470750000E+01 0. -1.
        -31    1    1    2    0    0 -0.36817085699E+00  0.18077173053E+00  0.58184288961E+02  0.58660366826E+02  0.74470750000E+01 0. -1.
<mgrwt>
<rscale>  0 0.14918295E+02</rscale>
<asrwt>0</asrwt>
<pdfrwt beam="2">  1        2 0.99662093E+00 0.14918295E+02</pdfrwt>
<pdfrwt beam="1">  1       -2 0.98426662E+00 0.14918295E+02</pdfrwt>
<totfact> 0.47115485E-13</totfact>
</mgrwt>
</event>
<event>
 4    1 -0.5245809E-019  0.1490677E+02  0.7818608E-02  0.1870927E+00
         -2   -1    0    0    0  501 -0.00000000000E+00  0.00000000000E+00  0.12031873697E+03  0.12031873699E+03  0.25500000000E-02 0.  1.
          2   -1    0    0  501    0  0.00000000000E+00 -0.00000000000E+00 -0.46171145865E+00  0.46171850034E+00  0.25500000000E-02 0. -1.
         31    1    1    2    0    0  0.15308307931E+00  0.95445981373E-01  0.61937774447E+02  0.62384127579E+02  0.74470750000E+01 0.  1.
        -31    1    1    2    0    0 -0.15308307931E+00 -0.95445981373E-01  0.57919251061E+02  0.58396327914E+02  0.74470750000E+01 0. -1.
<mgrwt>
<rscale>  0 0.14906772E+02</rscale>
<asrwt>0</asrwt>
<pdfrwt beam="2">  1        2 0.98070355E+00 0.14906772E+02</pdfrwt>
<pdfrwt beam="1">  1       -2 0.99869731E+00 0.14906772E+02</pdfrwt>
<totfact>-0.29413999E-13</totfact>
</mgrwt>
</event>
<event>
 4    1 -0.5245809E-019  0.1493685E+02  0.7818608E-02  0.1870002E+00
          2   -1    0    0  501    0  0.00000000000E+00  0.00000000000E+00  0.11886547652E+03  0.11886547655E+03  0.25500000000E-02 0. -1.
         -2   -1    0    0    0  501 -0.00000000000E+00 -0.00000000000E+00 -0.46924434280E+00  0.46925127144E+00  0.25500000000E-02 0.  1.
         31    1    1    2    0    0 -0.30138838856E+00  0.47697326485E+00  0.59117055377E+02  0.59586940692E+02  0.74470750000E+01 0. -1.
        -31    1    1    2    0    0  0.30138838856E+00 -0.47697326485E+00  0.59279176799E+02  0.59747787126E+02  0.74470750000E+01 0. -1.
<mgrwt>
<rscale>  0 0.14936849E+02</rscale>
<asrwt>0</asrwt>
<pdfrwt beam="1">  1        2 0.98674302E+00 0.14936849E+02</pdfrwt>
<pdfrwt beam="2">  1       -2 0.99659413E+00 0.14936849E+02</pdfrwt>
<totfact>-0.22947253E-13</totfact>
</mgrwt>
</event>
<event>
 4    1  0.5245809E-019  0.1489558E+02  0.7818608E-02  0.1871272E+00
          2   -1    0    0  501    0  0.00000000000E+00  0.00000000000E+00  0.12026280362E+03  0.12026280365E+03  0.25500000000E-02 0.  1.
         -2   -1    0    0    0  501 -0.00000000000E+00 -0.00000000000E+00 -0.46123279381E+00  0.46123984280E+00  0.25500000000E-02 0. -1.
         31    1    1    2    0    0  0.80964694257E-01  0.59053111035E-01  0.59701038037E+02  0.60163800673E+02  0.74470750000E+01 0.  1.
        -31    1    1    2    0    0 -0.80964694257E-01 -0.59053111035E-01  0.60100532788E+02  0.60560242817E+02  0.74470750000E+01 0.  1.
<mgrwt>
<rscale>  0 0.14895580E+02</rscale>
<asrwt>0</asrwt>
<pdfrwt beam="1">  1        2 0.99823086E+00 0.14895580E+02</pdfrwt>
<pdfrwt beam="2">  1       -2 0.97968900E+00 0.14895580E+02</pdfrwt>
<totfact> 0.74249359E-13</totfact>
</mgrwt>
</event>
<event>
 4    1 -0.5245809E-019  0.1498005E+02  0.7818608E-02  0.1868678E+00
          2   -1    0    0  501    0  0.00000000000E+00  0.00000000000E+00  0.11951224391E+03  0.11951224394E+03  0.25500000000E-02 0. -1.
         -2   -1    0    0    0  501 -0.00000000000E+00 -0.00000000000E+00 -0.46940833720E+00  0.46941526342E+00  0.25500000000E-02 0.  1.
         31    1    1    2    0    0  0.47110618661E-01  0.64869590593E+00  0.55777413785E+02  0.56276121405E+02  0.74470750000E+01 0.  1.
        -31    1    1    2    0    0 -0.47110618661E-01 -0.64869590593E+00  0.63265421788E+02  0.63705537796E+02  0.74470750000E+01 0. -1.
<mgrwt>
<rscale>  0 0.14980048E+02</rscale>
<asrwt>0</asrwt>
<pdfrwt beam="1">  1        2 0.99209231E+00 0.14980048E+02</pdfrwt>
<pdfrwt beam="2">  1       -2 0.99696227E+00 0.14980048E+02</pdfrwt>
<totfact>-0.12142114E-13</totfact>
</mgrwt>
</event>
<event>
 4    1  0.5245809E-019  0.1492109E+02  0.7818608E-02  0.1870486E+00
         -2   -1    0    0    0  501 -0.00000000000E+00  0.00000000000E+00  0.11854659804E+03  0.11854659807E+03  0.25500000000E-02 0. -1.
          2   -1    0    0  501    0  0.00000000000E+00 -0.00000000000E+00 -0.46951424098E+00  0.46952116563E+00  0.25500000000E-02 0.  1.
         31    1    1    2    0    0 -0.24257322060E+00 -0.25121788506E+00  0.61278346359E+02  0.61730192052E+02  0.74470750000E+01 0.  1.
        -31    1    1    2    0    0  0.24257322060E+00  0.25121788506E+00  0.56798737444E+02  0.57285927185E+02  0.74470750000E+01 0.  1.
<mgrwt>
<rscale>  0 0.14921090E+02</rscale>
<asrwt>0</asrwt>
<pdfrwt beam="2">  1        2 0.99715453E+00 0.14921090E+02</pdfrwt>
<pdfrwt beam="1">  1       -2 0.98410855E+00 0.14921090E+02</pdfrwt>
<totfact> 0.43744674E-13</totfact>
</mgrwt>
</event>
<event>
 4    1 -0.5245809E-019  0.1494434E+02  0.7818608E-02  0.1869772E+00
         -2   -1    0    0    0  501 -0.00000000000E+00  0.00000000000E+00  0.11998463020E+03  0.11998463022E+03  0.25500000000E-02 0.  1.
          2   -1    0    0  501    0  0.00000000000E+00 -0.00000000000E+00 -0.46533384111E+00  0.46534082797E+00  0.25500000000E-02 0. -1.
         31    1    1    2    0    0 -0.33810157589E-01  0.39743478028E+00  0.63499545564E+02  0.63935986036E+02  0.74470750000E+01 0.  1.
        -31    1    1    2    0    0  0.33810157589E-01 -0.39743478028E+00  0.56019750791E+02  0.56513985015E+02  0.74470750000E+01 0. -1.
<mgrwt>
<rscale>  0 0.14944341E+02</rscale>
<asrwt>0</asrwt>
<pdfrwt beam="2">  1        2 0.98835735E+00 0.14944341E+02</pdfrwt>
<pdfrwt beam="1">  1       -2 0.99596464E+00 0.14944341E+02</pdfrwt>
<totfact>-0.20106645E-13</totfact>
</mgrwt>
</event>
<event>
 4    1  0.5245809E-019  0.1491325E+02  0.7818608E-02  0.1870727E+00
         -2   -1    0    0    0  501 -0.00000000000E+00  0.00000000000E+00  0.11834860709E+03  0.11834860711E+03  0.25500000000E-02 0.  1.
          2   -1    0    0  501    0  0.00000000000E+00 -0.00000000000E+00 -0.46980551559E+00  0.46981243596E+00  0.25500000000E-02 0. -1.
         31    1    1    2    0    0 -0.94203415973E-01 -0.30765363203E+00  0.57370224816E+02  0.57852442874E+02  0.74470750000E+01 0. -1.
        -31    1    1    2    0    0  0.94203415973E-01  0.30765363203E+00  0.60508576754E+02  0.60965976675E+02  0.74470750000E+01 0.  1.
<mgrwt>
<rscale>  0 0.14913248E+02</rscale>
<asrwt>0</asrwt>
<pdfrwt beam="2">  1        2 0.99776410E+00 0.14913248E+02</pdfrwt>
<pdfrwt beam="1">  1       -2 0.98247383E+00 0.14913248E+02</pdfrwt>
<totfact> 0.53315397E-13</totfact>
</mgrwt>
</event>
<event>
 4    1  0.5245809E-019  0.1491171E+02  0.7818608E-02  0.1870775E+00
          2   -1    0    0  501    0  0.00000000000E+00  0.00000000000E+00  0.11944680483E+03  0.11944680485E+03  0.25500000000E-02 0. -1.
         -2   -1    0    0    0  501 -0.00000000000E+00 -0.00000000000E+00 -0.46539033977E+00  0.46539732579E+00  0.25500000000E-02 0.  1.
         31    1    1    2    0    0 -0.33129705243E+00 -0.10915016662E+00  0.58718892330E+02  0.59190277191E+02  0.74470750000E+01 0. -1.
        -31    1    1    2    0    0  0.33129705243E+00  0.10915016662E+00  0.60262522156E+02  0.60721924988E+02  0.74470750000E+01 0. -1.
<mgrwt>
<rscale>  0 0.14911715E+02</rscale>
<asrwt>0</asrwt>
<pdfrwt beam="1">  1        2 0.99151799E+00 0.14911715E+02</pdfrwt>
<pdfrwt beam="2">  1       -2 0.98845969E+00 0.14911715E+02</pdfrwt>
<totfact> 0.14885491E-13</totfact>
</mgrwt>
</event>
<event>
 4    1 -0.5245809E-019  0.1496680E+02  0.7818608E-02  0.1869083E+00
          2   -1    0    0  501    0  0.00000000000E+00  0.00000000000E+00  0.11998312598E+03  0.11998312601E+03  0.25500000000E-02 0. -1.
         -2   -1    0    0    0  501 -0.00000000000E+00 -0.00000000000E+00 -0.46673933827E+00  0.46674630410E+00  0.25500000000E-02 0.  1.
         31    1    1    2    0    0  0.48326148436E+00  0.88299954267E-01  0.64173508043E+02  0.64606032220E+02  0.74470750000E+01 0. -1.
        -31    1    1    2    0    0 -0.48326148436E+00 -0.88299954267E-01  0.55342878603E+02  0.55843840096E+02  0.74470750000E+01 0.  1.
<mgrwt>
<rscale>  0 0.14966799E+02</rscale>
<asrwt>0</asrwt>
<pdfrwt beam="1">  1        2 0.99596382E+00 0.14966799E+02</pdfrwt>
<pdfrwt beam="2">  1       -2 0.99133093E+00 0.14966799E+02</pdfrwt>
<totfact>-0.49287896E-14</totfact>
</mgrwt>
</event>
<event>
 4    1  0.5245809E-019  0.1494377E+02  0.7818608E-02  0.1869789E+00
          2   -1    0    0  501    0  0.00000000000E+00  0.00000000000E+00  0.12024932186E+03  0.12024932189E+03  0.25500000000E-02 0. -1.
         -2   -1    0    0    0  501 -0.00000000000E+00 -0.00000000000E+00 -0.46427437202E+00  0.46428137483E+00  0.25500000000E-02 0.  1.
         31    1    1    2    0    0  0.46514278463E+00 -0.41841309573E-01  0.63042556004E+02  0.63482603145E+02  0.74470750000E+01 0. -1.
        -31    1    1    2    0    0 -0.46514278463E+00  0.41841309573E-01  0.56742491489E+02  0.57231000121E+02  0.74470750000E+01 0.  1.
<mgrwt>
<rscale>  0 0.14943775E+02</rscale>
<asrwt>0</asrwt>
<pdfrwt beam="1">  1        2 0.99814453E+00 0.14943775E+02</pdfrwt>
<pdfrwt beam="2">  1       -2 0.98612414E+00 0.14943775E+02</pdfrwt>
<totfact> 0.17705788E-13</totfact>
</mgrwt>
</event>
<event>
 4    1 -0.5245809E-019  0.1490022E+02  0.7818608E-02  0.1871129E+00
         -2   -1    0    0    0  501 -0.00000000000E+00  0.00000000000E+00  0.11970114354E+03  0.11970114356E+03  0.25500000000E-02 0.  1.
          2   -1    0    0  501    0  0.00000000000E+00 -0.00000000000E+00 -0.46368563066E+00  0.46369264237E+00  0.25500000000E-02 0. -1.
         31    1    1    2    0    0 -0.85767310960E-01  0.19430004697E+00  0.59542840339E+02  0.60007115163E+02  0.74470750000E+01 0. -1.
        -31    1    1    2    0    0  0.85767310960E-01 -0.19430004697E+00  0.59694617568E+02  0.60157721044E+02  0.74470750000E+01 0.  1.
<mgrwt>
<rscale>  0 0.14900218E+02</rscale>
<asrwt>0</asrwt>
<pdfrwt beam="2">  1        2 0.98486115E+00 0.14900218E+02</pdfrwt>
<pdfrwt beam="1">  1       -2 0.99360694E+00 0.14900218E+02</pdfrwt>
<totfact>-0.33602084E-13</totfact>
</mgrwt>
</event>
<event>
 4    1 -0.5245809E-019  0.1490365E+02  0.7818608E-02  0.1871023E+00
          2   -1    0    0  501    0  0.00000000000E+00  0.00000000000E+00  0.11865663660E+03  0.11865663662E+03  0.25500000000E-02 0.  1.
         -2   -1    0    0    0  501 -0.00000000000E+00 -0.00000000000E+00 -0.46798265417E+00  0.46798960149E+00  0.25500000000E-02 0. -1.
         31    1    1    2    0    0 -0.23365487946E+00  0.12502054789E+00  0.59275251833E+02  0.59741816432E+02  0.74470750000E+01 0.  1.
        -31    1    1    2    0    0  0.23365487946E+00 -0.12502054789E+00  0.58913402110E+02  0.59382809793E+02  0.74470750000E+01 0. -1.
<mgrwt>
<rscale>  0 0.14903646E+02</rscale>
<asrwt>0</asrwt>
<pdfrwt beam="1">  1        2 0.98500576E+00 0.14903646E+02</pdfrwt>
<pdfrwt beam="2">  1       -2 0.99391820E+00 0.14903646E+02</pdfrwt>
<totfact>-0.33752909E-13</totfact>
</mgrwt>
</event>
<event>
 4    1 -0.5245809E-019  0.1501494E+02  0.7818608E-02  0.1867613E+00
         -2   -1    0    0    0  501 -0.00000000000E+00  0.00000000000E+00  0.12014216312E+03  0.12014216315E+03  0.25500000000E-02 0.  1.
          2   -1    0    0  501    0  0.00000000000E+00 -0.00000000000E+00 -0.46912487564E+00  0.46913180605E+00  0.25500000000E-02 0. -1.
         31    1    1    2    0    0 -0.48186763904E+00 -0.65290796618E+00  0.55863061037E+02  0.56363099629E+02  0.74470750000E+01 0. -1.
        -31    1    1    2    0    0  0.48186763904E+00  0.65290796618E+00  0.63809977209E+02  0.64248195327E+02  0.74470750000E+01 0.  1.
<mgrwt>
<rscale>  0 0.15014939E+02</rscale>
<asrwt>0</asrwt>
<pdfrwt beam="2">  1        2 0.99638302E+00 0.15014939E+02</pdfrwt>
<pdfrwt beam="1">  1       -2 0.99729857E+00 0.15014939E+02</pdfrwt>
<totfact>-0.74167734E-14</totfact>
</mgrwt>
</event>
<event>
 4    1 -0.5245809E-019  0.1490838E+02  0.7818608E-02  0.1870877E+00
          2   -1    0    0  501    0  0.00000000000E+00  0.00000000000E+00  0.11857671275E+03  0.11857671278E+03  0.25500000000E-02 0. -1.
         -2   -1    0    0    0  501 -0.00000000000E+00 -0.00000000000E+00 -0.46859536810E+00  0.46860230634E+00  0.25500000000E-02 0.  1.
         31    1    1    2    0    0 -0.13801763797E+00 -0.43212576889E-01  0.61383072483E+02  0.61833335910E+02  0.74470750000E+01 0. -1.
        -31    1    1    2    0    0  0.13801763797E+00  0.43212576889E-01  0.56725044902E+02  0.57211979177E+02  0.74470750000E+01 0.  1.
<mgrwt>
<rscale>  0 0.14908375E+02</rscale>
<asrwt>0</asrwt>
<pdfrwt beam="1">  1        2 0.98434996E+00 0.14908375E+02</pdfrwt>
<pdfrwt beam="2">  1       -2 0.99521173E+00 0.14908375E+02</pdfrwt>
<totfact>-0.38369454E-13</totfact>
</mgrwt>
</event>
<event>
 4    1 -0.5245809E-019  0.1491859E+02  0.7818608E-02  0.1870563E+00
         -2   -1    0    0    0  501 -0.00000000000E+00  0.00000000000E+00  0.12001060757E+03  0.12001060760E+03  0.25500000000E-02 0. -1.
          2   -1    0    0  501    0  0.00000000000E+00 -0.00000000000E+00 -0.46363124618E+00  0.46363825870E+00  0.25500000000E-02 0.  1.
         31    1    1    2    0    0  0.68103273485E-01 -0.24020811921E+00  0.56978083299E+02  0.57463233815E+02  0.74470750000E+01 0.  1.
        -31    1    1    2    0    0 -0.68103273485E-01  0.24020811921E+00  0.62568893025E+02  0.63011012041E+02  0.74470750000E+01 0. -1.
<mgrwt>
<rscale>  0 0.14918591E+02</rscale>
<asrwt>0</asrwt>
<pdfrwt beam="2">  1        2 0.98475588E+00 0.14918591E+02</pdfrwt>
<pdfrwt beam="1">  1       -2 0.99616536E+00 0.14918591E+02</pdfrwt>
<totfact>-0.33258180E-13</totfact>
</mgrwt>
</event>
<event>
 4    1 -0.5245809E-019  0.1502095E+02  0.7818608E-02  0.1867430E+00
         -2   -1    0    0    0  501 -0.00000000000E+00  0.00000000000E+00  0.11983551589E+03  0.11983551592E+03  0.25500000000E-02 0. -1.
          2   -1    0    0  501    0  0.00000000000E+00 -0.00000000000E+00 -0.47070191748E+00  0.47070882467E+00  0.25500000000E-02 0.  1.
         31    1    1    2    0    0 -0.50627179341E+00 -0.83185325811E+00  0.59703905279E+02  0.60174442436E+02  0.74470750000E+01 0.  1.
        -31    1    1    2    0    0  0.50627179341E+00  0.83185325811E+00  0.59660908693E+02  0.60131782305E+02  0.74470750000E+01 0. -1.
<mgrwt>
<rscale>  0 0.15020949E+02</rscale>
<asrwt>0</asrwt>
<pdfrwt beam="2">  1        2 0.99970943E+00 0.15020949E+02</pdfrwt>
<pdfrwt beam="1">  1       -2 0.99477604E+00 0.15020949E+02</pdfrwt>
<totfact>-0.11524985E-14</totfact>
</mgrwt>
</event>
<event>
 4    1 -0.5245809E-019  0.1495893E+02  0.7818608E-02  0.1869324E+00
          2   -1    0    0  501    0  0.00000000000E+00  0.00000000000E+00  0.11899299148E+03  0.11899299151E+03  0.25500000000E-02 0. -1.
         -2   -1    0    0    0  501 -0.00000000000E+00 -0.00000000000E+00 -0.47012819576E+00  0.47013511137E+00  0.25500000000E-02 0.  1.
         31    1    1    2    0    0  0.20595894139E+00 -0.27593701693E-01  0.64560411428E+02  0.64988836198E+02  0.74470750000E+01 0. -1.
        -31    1    1    2    0    0 -0.20595894139E+00  0.27593701693E-01  0.53962451855E+02  0.54474290420E+02  0.74470750000E+01 0.  1.
<mgrwt>
<rscale>  0 0.14958927E+02</rscale>
<asrwt>0</asrwt>
<pdfrwt beam="1">  1        2 0.98780471E+00 0.14958927E+02</pdfrwt>
<pdfrwt beam="2">  1       -2 0.99846807E+00 0.14958927E+02</pdfrwt>
<totfact>-0.10889248E-13</totfact>
</mgrwt>
</event>
<event>
 4    1  0.5245809E-019  0.1491088E+02  0.7818608E-02  0.1870800E+00
         -2   -1    0    0    0  501 -0.00000000000E+00  0.00000000000E+00  0.11905781073E+03  0.11905781076E+03  0.25500000000E-02 0. -1.
          2   -1    0    0  501    0  0.00000000000E+00 -0.00000000000E+00 -0.46685884938E+00  0.46686581342E+00  0.25500000000E-02 0.  1.
         31    1    1    2    0    0 -0.59657488857E-01 -0.33055968280E+00  0.58422674462E+02  0.58896355117E+02  0.74470750000E+01 0.  1.
        -31    1    1    2    0    0  0.59657488857E-01  0.33055968280E+00  0.60168277423E+02  0.60628321458E+02  0.74470750000E+01 0.  1.
<mgrwt>
<rscale>  0 0.14910883E+02</rscale>
<asrwt>0</asrwt>
<pdfrwt beam="2">  1        2 0.99155391E+00 0.14910883E+02</pdfrwt>
<pdfrwt beam="1">  1       -2 0.98831365E+00 0.14910883E+02</pdfrwt>
<totfact> 0.16387973E-13</totfact>
</mgrwt>
</event>
<event>
 4    1 -0.5245809E-019  0.1495023E+02  0.7818608E-02  0.1869591E+00
          2   -1    0    0  501    0  0.00000000000E+00  0.00000000000E+00  0.11953453032E+03  0.11953453034E+03  0.25500000000E-02 0.  1.
         -2   -1    0    0    0  501 -0.00000000000E+00 -0.00000000000E+00 -0.46745400292E+00  0.46746095810E+00  0.25500000000E-02 0. -1.
         31    1    1    2    0    0 -0.60055928296E+00  0.15676914725E+00  0.58072323362E+02  0.58551164931E+02  0.74470750000E+01 0. -1.
        -31    1    1    2    0    0  0.60055928296E+00 -0.15676914725E+00  0.60994752951E+02  0.61450826370E+02  0.74470750000E+01 0. -1.
<mgrwt>
<rscale>  0 0.14950226E+02</rscale>
<asrwt>0</asrwt>
<pdfrwt beam="1">  1        2 0.99226043E+00 0.14950226E+02</pdfrwt>
<pdfrwt beam="2">  1       -2 0.99282847E+00 0.14950226E+02</pdfrwt>
<totfact>-0.12463351E-13</totfact>
</mgrwt>
</event>
<event>
 4    1 -0.5245809E-019  0.1494641E+02  0.7818608E-02  0.1869708E+00
         -2   -1    0    0    0  501 -0.00000000000E+00  0.00000000000E+00  0.11963375727E+03  0.11963375729E+03  0.25500000000E-02 0.  1.
          2   -1    0    0  501    0  0.00000000000E+00 -0.00000000000E+00 -0.46682803600E+00  0.46683500051E+00  0.25500000000E-02 0. -1.
         31    1    1    2    0    0  0.29555769735E+00 -0.52822180360E+00  0.58351315521E+02  0.58827725791E+02  0.74470750000E+01 0.  1.
        -31    1    1    2    0    0 -0.29555769735E+00  0.52822180360E+00  0.60815613708E+02  0.61272866502E+02  0.74470750000E+01 0.  1.
<mgrwt>
<rscale>  0 0.14946413E+02</rscale>
<asrwt>0</asrwt>
<pdfrwt beam="2">  1        2 0.99150737E+00 0.14946413E+02</pdfrwt>
<pdfrwt beam="1">  1       -2 0.99307573E+00 0.14946413E+02</pdfrwt>
<totfact>-0.13809854E-13</totfact>
</mgrwt>
</event>
<event>
 4    1 -0.5245809E-019  0.1492023E+02  0.7818608E-02  0.1870513E+00
          2   -1    0    0  501    0  0.00000000000E+00  0.00000000000E+00  0.11905976585E+03  0.11905976587E+03  0.25500000000E-02 0.  1.
         -2   -1    0    0    0  501 -0.00000000000E+00 -0.00000000000E+00 -0.46743658530E+00  0.46744354073E+00  0.25500000000E-02 0. -1.
         31    1    1    2    0    0  0.20907018995E+00  0.70200015090E-02  0.62405270701E+02  0.62848392954E+02  0.74470750000E+01 0.  1.
        -31    1    1    2    0    0 -0.20907018995E+00 -0.70200015090E-02  0.56187058562E+02  0.56678816462E+02  0.74470750000E+01 0. -1.
<mgrwt>
<rscale>  0 0.14920229E+02</rscale>
<asrwt>0</asrwt>
<pdfrwt beam="1">  1        2 0.98833460E+00 0.14920229E+02</pdfrwt>
<pdfrwt beam="2">  1       -2 0.99277620E+00 0.14920229E+02</pdfrwt>
<totfact>-0.17770696E-13</totfact>
</mgrwt>
</event>
<event>
 4    1  0.5245809E-019  0.1490758E+02  0.7818608E-02  0.1870902E+00
         -2   -1    0    0    0  501 -0.00000000000E+00  0.00000000000E+00  0.11848476929E+03  0.11848476932E+03  0.25500000000E-02 0.  1.
          2   -1    0    0  501    0  0.00000000000E+00 -0.00000000000E+00 -0.46890919607E+00  0.46891612966E+00  0.25500000000E-02 0. -1.
         31    1    1    2    0    0 -0.12082482983E+00  0.13651631717E+00  0.56944816674E+02  0.57429994841E+02  0.74470750000E+01 0. -1.
        -31    1    1    2    0    0  0.12082482983E+00 -0.13651631717E+00  0.61071043422E+02  0.61523690608E+02  0.74470750000E+01 0.  1.
<mgrwt>
<rscale>  0 0.14907584E+02</rscale>
<asrwt>0</asrwt>
<pdfrwt beam="2">  1        2 0.99587257E+00 0.14907584E+02</pdfrwt>
<pdfrwt beam="1">  1       -2 0.98359230E+00 0.14907584E+02</pdfrwt>
<totfact> 0.62720830E-13</totfact>
</mgrwt>
</event>
<event>
 4    1 -0.5245809E-019  0.1501147E+02  0.7818608E-02  0.1867719E+00
          2   -1    0    0  501    0  0.00000000000E+00  0.00000000000E+00  0.12006113951E+03  0.12006113954E+03  0.25500000000E-02 0.  1.
         -2   -1    0    0    0  501 -0.00000000000E+00 -0.00000000000E+00 -0.46922452093E+00  0.46923144986E+00  0.25500000000E-02 0. -1.
         31    1    1    2    0    0 -0.71109312975E+00 -0.59615501345E+00  0.58778126783E+02  0.59255279667E+02  0.74470750000E+01 0.  1.
        -31    1    1    2    0    0  0.71109312975E+00  0.59615501345E+00  0.60813788205E+02  0.61275091319E+02  0.74470750000E+01 0. -1.
<mgrwt>
<rscale>  0 0.15011469E+02</rscale>
<asrwt>0</asrwt>
<pdfrwt beam="1">  1        2 0.99662944E+00 0.15011469E+02</pdfrwt>
<pdfrwt beam="2">  1       -2 0.99659122E+00 0.15011469E+02</pdfrwt>
<totfact>-0.82326524E-14</totfact>
</mgrwt>
</event>
<event>
 4    1 -0.5245809E-019  0.1493216E+02  0.7818608E-02  0.1870146E+00
          2   -1    0    0  501    0  0.00000000000E+00  0.00000000000E+00  0.11923318462E+03  0.11923318464E+03  0.25500000000E-02 0.  1.
         -2   -1    0    0    0  501 -0.00000000000E+00 -0.00000000000E+00 -0.46750339811E+00  0.46751035255E+00  0.25500000000E-02 0. -1.
         31    1    1    2    0    0 -0.12430228431E+00  0.27769827016E+00  0.62884812472E+02  0.63324964533E+02  0.74470750000E+01 0.  1.
        -31    1    1    2    0    0  0.12430228431E+00 -0.27769827016E+00  0.55880868746E+02  0.56375730463E+02  0.74470750000E+01 0. -1.
<mgrwt>
<rscale>  0 0.14932158E+02</rscale>
<asrwt>0</asrwt>
<pdfrwt beam="1">  1        2 0.98976910E+00 0.14932158E+02</pdfrwt>
<pdfrwt beam="2">  1       -2 0.99292320E+00 0.14932158E+02</pdfrwt>
<totfact>-0.15622159E-13</totfact>
</mgrwt>
</event>
<event>
 4    1 -0.5245809E-019  0.1492912E+02  0.7818608E-02  0.1870239E+00
         -2   -1    0    0    0  501 -0.00000000000E+00  0.00000000000E+00  0.11992661200E+03  0.11992661203E+03  0.25500000000E-02 0.  1.
          2   -1    0    0  501    0  0.00000000000E+00 -0.00000000000E+00 -0.46461123457E+00  0.46461823230E+00  0.25500000000E-02 0. -1.
         31    1    1    2    0    0  0.40162417882E+00 -0.48742122909E-01  0.57218513853E+02  0.57702521014E+02  0.74470750000E+01 0. -1.
        -31    1    1    2    0    0 -0.40162417882E+00  0.48742122909E-01  0.62243486913E+02  0.62688709246E+02  0.74470750000E+01 0. -1.
<mgrwt>
<rscale>  0 0.14929122E+02</rscale>
<asrwt>0</asrwt>
<pdfrwt beam="2">  1        2 0.98682666E+00 0.14929122E+02</pdfrwt>
<pdfrwt beam="1">  1       -2 0.99547893E+00 0.14929122E+02</pdfrwt>
<totfact>-0.25680357E-13</totfact>
</mgrwt>
</event>
<event>
 4    1  0.5245809E-019  0.1492438E+02  0.7818608E-02  0.1870385E+00
         -2   -1    0    0    0  501 -0.00000000000E+00  0.00000000000E+00  0.11890786211E+03  0.11890786213E+03  0.25500000000E-02 0. -1.
          2   -1    0    0  501    0  0.00000000000E+00 -0.00000000000E+00 -0.46829398674E+00  0.46830092945E+00  0.25500000000E-02 0.  1.
         31    1    1    2    0    0 -0.39879097362E+00  0.62538486876E-01  0.61217571267E+02  0.61670194610E+02  0.74470750000E+01 0.  1.
        -31    1    1    2    0    0  0.39879097362E+00 -0.62538486876E-01  0.57221996853E+02  0.57705968454E+02  0.74470750000E+01 0.  1.
<mgrwt>
<rscale>  0 0.14924376E+02</rscale>
<asrwt>0</asrwt>
<pdfrwt beam="2">  1        2 0.99458508E+00 0.14924376E+02</pdfrwt>
<pdfrwt beam="1">  1       -2 0.98708564E+00 0.14924376E+02</pdfrwt>
<totfact> 0.24679829E-13</totfact>
</mgrwt>
</event>
<event>
 4    1  0.5245809E-019  0.1489587E+02  0.7818608E-02  0.1871263E+00
         -2   -1    0    0    0  501 -0.00000000000E+00  0.00000000000E+00  0.11912872183E+03  0.11912872185E+03  0.25500000000E-02 0.  1.
          2   -1    0    0  501    0  0.00000000000E+00 -0.00000000000E+00 -0.46564161650E+00  0.46564859875E+00  0.25500000000E-02 0. -1.
         31    1    1    2    0    0 -0.92596860675E-01  0.51430337456E-01  0.59013981150E+02  0.59482099126E+02  0.74470750000E+01 0. -1.
        -31    1    1    2    0    0  0.92596860675E-01 -0.51430337456E-01  0.59649099059E+02  0.60112271325E+02  0.74470750000E+01 0. -1.
<mgrwt>
<rscale>  0 0.14895867E+02</rscale>
<asrwt>0</asrwt>
<pdfrwt beam="2">  1        2 0.98898105E+00 0.14895867E+02</pdfrwt>
<pdfrwt beam="1">  1       -2 0.98888993E+00 0.14895867E+02</pdfrwt>
<totfact> 0.13372820E-13</totfact>
</mgrwt>
</event>
<event>
 4    1 -0.5245809E-019  0.1496897E+02  0.7818608E-02  0.1869017E+00
         -2   -1    0    0    0  501 -0.00000000000E+00  0.00000000000E+00  0.12009840362E+03  0.12009840365E+03  0.25500000000E-02 0.  1.
          2   -1    0    0  501    0  0.00000000000E+00 -0.00000000000E+00 -0.46642694236E+00  0.46643391285E+00  0.25500000000E-02 0. -1.
         31    1    1    2    0    0  0.24855155139E+00 -0.66247306974E+00  0.57876611753E+02  0.58358047966E+02  0.74470750000E+01 0.  1.
        -31    1    1    2    0    0 -0.24855155139E+00  0.66247306974E+00  0.61755364926E+02  0.62206789594E+02  0.74470750000E+01 0.  1.
<mgrwt>
<rscale>  0 0.14968975E+02</rscale>
<asrwt>0</asrwt>
<pdfrwt beam="2">  1        2 0.99067368E+00 0.14968975E+02</pdfrwt>
<pdfrwt beam="1">  1       -2 0.99691443E+00 0.14968975E+02</pdfrwt>
<totfact>-0.13703787E-13</totfact>
</mgrwt>
</event>
<event>
 4    1  0.5245809E-019  0.1490335E+02  0.7818608E-02  0.1871032E+00
         -2   -1    0    0    0  501 -0.00000000000E+00  0.00000000000E+00  0.11817063484E+03  0.11817063487E+03  0.25500000000E-02 0.  1.
          2   -1    0    0  501    0  0.00000000000E+00 -0.00000000000E+00 -0.46988898667E+00  0.46989590580E+00  0.25500000000E-02 0. -1.
         31    1    1    2    0    0  0.26060084313E+00  0.10285600588E-02  0.58647099257E+02  0.59118601905E+02  0.74470750000E+01 0.  1.
        -31    1    1    2    0    0 -0.26060084313E+00 -0.10285600588E-02  0.59053646601E+02  0.59521928873E+02  0.74470750000E+01 0. -1.
<mgrwt>
<rscale>  0 0.14903354E+02</rscale>
<asrwt>0</asrwt>
<pdfrwt beam="2">  1        2 0.99793472E+00 0.14903354E+02</pdfrwt>
<pdfrwt beam="1">  1       -2 0.98100292E+00 0.14903354E+02</pdfrwt>
<totfact> 0.66813701E-13</totfact>
</mgrwt>
</event>
<event>
 4    1 -0.5245809E-019  0.1498407E+02  0.7818608E-02  0.1868555E+00
          2   -1    0    0  501    0  0.00000000000E+00  0.00000000000E+00  0.11948219089E+03  0.11948219091E+03  0.25500000000E-02 0.  1.
         -2   -1    0    0    0  501 -0.00000000000E+00 -0.00000000000E+00 -0.46977835634E+00  0.46978527711E+00  0.25500000000E-02 0. -1.
         31    1    1    2    0    0  0.68833630858E-01 -0.62163135390E+00  0.55266612541E+02  0.55769602396E+02  0.74470750000E+01 0.  1.
        -31    1    1    2    0    0 -0.68833630858E-01  0.62163135390E+00  0.63745799988E+02  0.64182373794E+02  0.74470750000E+01 0. -1.
<mgrwt>
<rscale>  0 0.14984067E+02</rscale>
<asrwt>0</asrwt>
<pdfrwt beam="1">  1        2 0.99184687E+00 0.14984067E+02</pdfrwt>
<pdfrwt beam="2">  1       -2 0.99774407E+00 0.14984067E+02</pdfrwt>
<totfact>-0.10005269E-13</totfact>
</mgrwt>
</event>
<event>
 4    1 -0.5245809E-019  0.1501913E+02  0.7818608E-02  0.1867485E+00
         -2   -1    0    0    0  501 -0.00000000000E+00  0.00000000000E+00  0.12031002369E+03  0.12031002372E+03  0.25500000000E-02 0.  1.
          2   -1    0    0  501    0  0.00000000000E+00 -0.00000000000E+00 -0.46873164486E+00  0.46873858108E+00  0.25500000000E-02 0. -1.
         31    1    1    2    0    0 -0.58834289802E+00  0.67564228541E+00  0.56999297745E+02  0.57490708026E+02  0.74470750000E+01 0. -1.
        -31    1    1    2    0    0  0.58834289802E+00 -0.67564228541E+00  0.62841994302E+02  0.63288054274E+02  0.74470750000E+01 0.  1.
<mgrwt>
<rscale>  0 0.15019126E+02</rscale>
<asrwt>0</asrwt>
<pdfrwt beam="2">  1        2 0.99555649E+00 0.15019126E+02</pdfrwt>
<pdfrwt beam="1">  1       -2 0.99868331E+00 0.15019126E+02</pdfrwt>
<totfact>-0.46707658E-14</totfact>
</mgrwt>
</event>
<event>
 4    1 -0.5245809E-019  0.1491794E+02  0.7818608E-02  0.1870583E+00
          2   -1    0    0  501    0  0.00000000000E+00  0.00000000000E+00  0.11828593647E+03  0.11828593650E+03  0.25500000000E-02 0. -1.
         -2   -1    0    0    0  501 -0.00000000000E+00 -0.00000000000E+00 -0.47035055276E+00  0.47035746511E+00  0.25500000000E-02 0.  1.
         31    1    1    2    0    0 -0.13404027139E+00 -0.25985272219E+00  0.61320421812E+02  0.61771664600E+02  0.74470750000E+01 0. -1.
        -31    1    1    2    0    0  0.13404027139E+00  0.25985272219E+00  0.56495164110E+02  0.56984629367E+02  0.74470750000E+01 0.  1.
<mgrwt>
<rscale>  0 0.14917945E+02</rscale>
<asrwt>0</asrwt>
<pdfrwt beam="1">  1        2 0.98196013E+00 0.14917945E+02</pdfrwt>
<pdfrwt beam="2">  1       -2 0.99891494E+00 0.14917945E+02</pdfrwt>
<totfact>-0.20218267E-13</totfact>
</mgrwt>
</event>
<event>
 4    1 -0.5245809E-019  0.1495287E+02  0.7818608E-02  0.1869510E+00
          2   -1    0    0  501    0  0.00000000000E+00  0.00000000000E+00  0.11941820191E+03  0.11941820194E+03  0.25500000000E-02 0.  1.
         -2   -1    0    0    0  501 -0.00000000000E+00 -0.00000000000E+00 -0.46807492262E+00  0.46808186857E+00  0.25500000000E-02 0. -1.
         31    1    1    2    0    0  0.34625671132E+00 -0.39915267332E+00  0.56278650514E+02  0.56771688774E+02  0.74470750000E+01 0. -1.
        -31    1    1    2    0    0 -0.34625671132E+00  0.39915267332E+00  0.62671476476E+02  0.63114595033E+02  0.74470750000E+01 0.  1.
<mgrwt>
<rscale>  0 0.14952870E+02</rscale>
<asrwt>0</asrwt>
<pdfrwt beam="1">  1        2 0.99130367E+00 0.14952870E+02</pdfrwt>
<pdfrwt beam="2">  1       -2 0.99413831E+00 0.14952870E+02</pdfrwt>
<totfact>-0.15741696E-13</totfact>
</mgrwt>
</event>
<event>
 4    1  0.5245809E-019  0.1494183E+02  0.7818608E-02  0.1869849E+00
          2   -1    0    0  501    0  0.00000000000E+00  0.00000000000E+00  0.12018066140E+03  0.12018066143E+03  0.25500000000E-02 0.  1.
         -2   -1    0    0    0  501 -0.00000000000E+00 -0.00000000000E+00 -0.46441899926E+00  0.46442599989E+00  0.25500000000E-02 0. -1.
         31    1    1    2    0    0  0.39640973542E+00  0.20745099993E+00  0.56674098313E+02  0.57163034579E+02  0.74470750000E+01 0. -1.
        -31    1    1    2    0    0 -0.39640973542E+00 -0.20745099993E+00  0.63042144089E+02  0.63482052850E+02  0.74470750000E+01 0.  1.
<mgrwt>
<rscale>  0 0.14941835E+02</rscale>
<asrwt>0</asrwt>
<pdfrwt beam="1">  1        2 0.99757799E+00 0.14941835E+02</pdfrwt>
<pdfrwt beam="2">  1       -2 0.98642798E+00 0.14941835E+02</pdfrwt>
<totfact> 0.19499280E-13</totfact>
</mgrwt>
</event>
<event>
 4    1 -0.5245809E-019  0.1490868E+02  0.7818608E-02  0.1870868E+00
          2   -1    0    0  501    0  0.00000000000E+00  0.00000000000E+00  0.11816737643E+03  0.11816737646E+03  0.25500000000E-02 0. -1.
         -2   -1    0    0    0  501 -0.00000000000E+00 -0.00000000000E+00 -0.47023785117E+00  0.47024476517E+00  0.25500000000E-02 0.  1.
         31    1    1    2    0    0  0.22471669534E+00 -0.98807026676E-01  0.57105169954E+02  0.57589231823E+02  0.74470750000E+01 0.  1.
        -31    1    1    2    0    0 -0.22471669534E+00  0.98807026676E-01  0.60591968628E+02  0.61048389403E+02  0.74470750000E+01 0. -1.
<mgrwt>
<rscale>  0 0.14908680E+02</rscale>
<asrwt>0</asrwt>
<pdfrwt beam="1">  1        2 0.98097886E+00 0.14908680E+02</pdfrwt>
<pdfrwt beam="2">  1       -2 0.99867257E+00 0.14908680E+02</pdfrwt>
<totfact>-0.28568096E-13</totfact>
</mgrwt>
</event>
<event>
 4    1 -0.5245809E-019  0.1497684E+02  0.7818608E-02  0.1868776E+00
         -2   -1    0    0    0  501 -0.00000000000E+00  0.00000000000E+00  0.12032704621E+03  0.12032704624E+03  0.25500000000E-02 0. -1.
          2   -1    0    0  501    0  0.00000000000E+00 -0.00000000000E+00 -0.46602977273E+00  0.46603674917E+00  0.25500000000E-02 0.  1.
         31    1    1    2    0    0  0.36134619163E+00 -0.15526318483E-01  0.54303991495E+02  0.54813440236E+02  0.74470750000E+01 0.  1.
        -31    1    1    2    0    0 -0.36134619163E+00  0.15526318483E-01  0.65557024944E+02  0.65979642753E+02  0.74470750000E+01 0. -1.
<mgrwt>
<rscale>  0 0.14976837E+02</rscale>
<asrwt>0</asrwt>
<pdfrwt beam="2">  1        2 0.98984065E+00 0.14976837E+02</pdfrwt>
<pdfrwt beam="1">  1       -2 0.99880172E+00 0.14976837E+02</pdfrwt>
<totfact>-0.69495450E-14</totfact>
</mgrwt>
</event>
<event>
 4    1 -0.5245809E-019  0.1495495E+02  0.7818608E-02  0.1869446E+00
          2   -1    0    0  501    0  0.00000000000E+00  0.00000000000E+00  0.11956654831E+03  0.11956654834E+03  0.25500000000E-02 0.  1.
         -2   -1    0    0    0  501 -0.00000000000E+00 -0.00000000000E+00 -0.46762396610E+00  0.46763091875E+00  0.25500000000E-02 0. -1.
         31    1    1    2    0    0 -0.28590002870E+00  0.57953692426E+00  0.58024987093E+02  0.58504492606E+02  0.74470750000E+01 0. -1.
        -31    1    1    2    0    0  0.28590002870E+00 -0.57953692426E+00  0.61073937251E+02  0.61529686650E+02  0.74470750000E+01 0. -1.
<mgrwt>
<rscale>  0 0.14954946E+02</rscale>
<asrwt>0</asrwt>
<pdfrwt beam="1">  1        2 0.99252658E+00 0.14954946E+02</pdfrwt>
<pdfrwt beam="2">  1       -2 0.99318908E+00 0.14954946E+02</pdfrwt>
<totfact>-0.13052601E-13</totfact>
</mgrwt>
</event>
<event>
 4    1 -0.5245809E-019  0.1496147E+02  0.7818608E-02  0.1869247E+00
         -2   -1    0    0    0  501 -0.00000000000E+00  0.00000000000E+00  0.12034693650E+03  0.12034693652E+03  0.25500000000E-02 0. -1.
          2   -1    0    0  501    0  0.00000000000E+00 -0.00000000000E+00 -0.46499681522E+00  0.46500380715E+00  0.25500000000E-02 0.  1.
         31    1    1    2    0    0  0.13733505477E+00  0.68642658249E-01  0.65528801855E+02  0.65950787496E+02  0.74470750000E+01 0. -1.
        -31    1    1    2    0    0 -0.13733505477E+00 -0.68642658249E-01  0.54353137826E+02  0.54861152834E+02  0.74470750000E+01 0.  1.
<mgrwt>
<rscale>  0 0.14961466E+02</rscale>
<asrwt>0</asrwt>
<pdfrwt beam="2">  1        2 0.98765577E+00 0.14961466E+02</pdfrwt>
<pdfrwt beam="1">  1       -2 0.99895765E+00 0.14961466E+02</pdfrwt>
<totfact>-0.78835040E-14</totfact>
</mgrwt>
</event>
<event>
 4    1 -0.5245809E-019  0.1494665E+02  0.7818608E-02  0.1869701E+00
         -2   -1    0    0    0  501 -0.00000000000E+00  0.00000000000E+00  0.11996190388E+03  0.11996190390E+03  0.25500000000E-02 0. -1.
          2   -1    0    0  501    0  0.00000000000E+00 -0.00000000000E+00 -0.46556588449E+00  0.46557286787E+00  0.25500000000E-02 0.  1.
         31    1    1    2    0    0  0.40256334191E+00  0.13125067292E+00  0.63461302163E+02  0.63898161806E+02  0.74470750000E+01 0. -1.
        -31    1    1    2    0    0 -0.40256334191E+00 -0.13125067292E+00  0.56035035830E+02  0.56529314965E+02  0.74470750000E+01 0. -1.
<mgrwt>
<rscale>  0 0.14946651E+02</rscale>
<asrwt>0</asrwt>
<pdfrwt beam="2">  1        2 0.98884757E+00 0.14946651E+02</pdfrwt>
<pdfrwt beam="1">  1       -2 0.99577864E+00 0.14946651E+02</pdfrwt>
<totfact>-0.19316058E-13</totfact>
</mgrwt>
</event>
<event>
 4    1 -0.5245809E-019  0.1499745E+02  0.7818608E-02  0.1868146E+00
          2   -1    0    0  501    0  0.00000000000E+00  0.00000000000E+00  0.11993310845E+03  0.11993310848E+03  0.25500000000E-02 0.  1.
         -2   -1    0    0    0  501 -0.00000000000E+00 -0.00000000000E+00 -0.46884834365E+00  0.46885527814E+00  0.25500000000E-02 0. -1.
         31    1    1    2    0    0 -0.66516103383E+00  0.20557345256E+00  0.64034751255E+02  0.64470093795E+02  0.74470750000E+01 0.  1.
        -31    1    1    2    0    0  0.66516103383E+00 -0.20557345256E+00  0.55429508852E+02  0.55931869961E+02  0.74470750000E+01 0. -1.
<mgrwt>
<rscale>  0 0.14997448E+02</rscale>
<asrwt>0</asrwt>
<pdfrwt beam="1">  1        2 0.99556768E+00 0.14997448E+02</pdfrwt>
<pdfrwt beam="2">  1       -2 0.99579124E+00 0.14997448E+02</pdfrwt>
<totfact>-0.10715016E-13</totfact>
</mgrwt>
</event>
<event>
 4    1 -0.5245809E-019  0.1494212E+02  0.7818608E-02  0.1869840E+00
          2   -1    0    0  501    0  0.00000000000E+00  0.00000000000E+00  0.11883383590E+03  0.11883383593E+03  0.25500000000E-02 0.  1.
         -2   -1    0    0    0  501 -0.00000000000E+00 -0.00000000000E+00 -0.46970034554E+00  0.46970726746E+00  0.25500000000E-02 0. -1.
         31    1    1    2    0    0 -0.26528910955E+00  0.30434322458E+00  0.55658257834E+02  0.56155708475E+02  0.74470750000E+01 0. -1.
        -31    1    1    2    0    0  0.26528910955E+00 -0.30434322458E+00  0.62705877725E+02  0.63147834725E+02  0.74470750000E+01 0.  1.
<mgrwt>
<rscale>  0 0.14942116E+02</rscale>
<asrwt>0</asrwt>
<pdfrwt beam="1">  1        2 0.98648517E+00 0.14942116E+02</pdfrwt>
<pdfrwt beam="2">  1       -2 0.99755773E+00 0.14942116E+02</pdfrwt>
<totfact>-0.19106339E-13</totfact>
</mgrwt>
</event>
<event>
 4    1 -0.5245809E-019  0.1495649E+02  0.7818608E-02  0.1869399E+00
          2   -1    0    0  501    0  0.00000000000E+00  0.00000000000E+00  0.11962448565E+03  0.11962448568E+03  0.25500000000E-02 0. -1.
         -2   -1    0    0    0  501 -0.00000000000E+00 -0.00000000000E+00 -0.46749378538E+00  0.46750073997E+00  0.25500000000E-02 0.  1.
         31    1    1    2    0    0  0.61308116298E+00 -0.19990385686E+00  0.57794468137E+02  0.58275855235E+02  0.74470750000E+01 0.  1.
        -31    1    1    2    0    0 -0.61308116298E+00  0.19990385686E+00  0.61362523729E+02  0.61816131184E+02  0.74470750000E+01 0. -1.
<mgrwt>
<rscale>  0 0.14956487E+02</rscale>
<asrwt>0</asrwt>
<pdfrwt beam="1">  1        2 0.99300457E+00 0.14956487E+02</pdfrwt>
<pdfrwt beam="2">  1       -2 0.99291554E+00 0.14956487E+02</pdfrwt>
<totfact>-0.12024274E-13</totfact>
</mgrwt>
</event>
<event>
 4    1 -0.5245809E-019  0.1494335E+02  0.7818608E-02  0.1869802E+00
          2   -1    0    0  501    0  0.00000000000E+00  0.00000000000E+00  0.11869526913E+03  0.11869526915E+03  0.25500000000E-02 0.  1.
         -2   -1    0    0    0  501 -0.00000000000E+00 -0.00000000000E+00 -0.47032654175E+00  0.47033345445E+00  0.25500000000E-02 0. -1.
         31    1    1    2    0    0  0.42912928732E+00  0.32733614154E+00  0.56918080733E+02  0.57405732651E+02  0.74470750000E+01 0. -1.
        -31    1    1    2    0    0 -0.42912928732E+00 -0.32733614154E+00  0.61306861852E+02  0.61759869957E+02  0.74470750000E+01 0.  1.
<mgrwt>
<rscale>  0 0.14943353E+02</rscale>
<asrwt>0</asrwt>
<pdfrwt beam="1">  1        2 0.98534458E+00 0.14943353E+02</pdfrwt>
<pdfrwt beam="2">  1       -2 0.99887779E+00 0.14943353E+02</pdfrwt>
<totfact>-0.11859360E-13</totfact>
</mgrwt>
</event>
<event>
 4    1 -0.5245809E-019  0.1499370E+02  0.7818608E-02  0.1868261E+00
          2   -1    0    0  501    0  0.00000000000E+00  0.00000000000E+00  0.11983133867E+03  0.11983133870E+03  0.25500000000E-02 0.  1.
         -2   -1    0    0    0  501 -0.00000000000E+00 -0.00000000000E+00 -0.46901174193E+00  0.46901867401E+00  0.25500000000E-02 0. -1.
         31    1    1    2    0    0  0.48686189287E+00  0.36831535086E+00  0.64568898520E+02  0.64999802099E+02  0.74470750000E+01 0.  1.
        -31    1    1    2    0    0 -0.48686189287E+00 -0.36831535086E+00  0.54793428411E+02  0.55300555275E+02  0.74470750000E+01 0. -1.
<mgrwt>
<rscale>  0 0.14993695E+02</rscale>
<asrwt>0</asrwt>
<pdfrwt beam="1">  1        2 0.99472752E+00 0.14993695E+02</pdfrwt>
<pdfrwt beam="2">  1       -2 0.99613363E+00 0.14993695E+02</pdfrwt>
<totfact>-0.11329596E-13</totfact>
</mgrwt>
</event>
<event>
 4    1 -0.5245809E-019  0.1495730E+02  0.7818608E-02  0.1869374E+00
          2   -1    0    0  501    0  0.00000000000E+00  0.00000000000E+00  0.11970373001E+03  0.11970373004E+03  0.25500000000E-02 0.  1.
         -2   -1    0    0    0  501 -0.00000000000E+00 -0.00000000000E+00 -0.46723525704E+00  0.46724221548E+00  0.25500000000E-02 0. -1.
         31    1    1    2    0    0 -0.26438407758E+00  0.11190853010E-02  0.64708427142E+02  0.65136083467E+02  0.74470750000E+01 0.  1.
        -31    1    1    2    0    0  0.26438407758E+00 -0.11190853010E-02  0.54528067614E+02  0.55034888788E+02  0.74470750000E+01 0. -1.
<mgrwt>
<rscale>  0 0.14957302E+02</rscale>
<asrwt>0</asrwt>
<pdfrwt beam="1">  1        2 0.99365768E+00 0.14957302E+02</pdfrwt>
<pdfrwt beam="2">  1       -2 0.99237115E+00 0.14957302E+02</pdfrwt>
<totfact>-0.10049443E-13</totfact>
</mgrwt>
</event>
<event>
 4    1 -0.5245809E-019  0.1498034E+02  0.7818608E-02  0.1868669E+00
         -2   -1    0    0    0  501 -0.00000000000E+00  0.00000000000E+00  0.11962289193E+03  0.11962289196E+03  0.25500000000E-02 0.  1.
          2   -1    0    0  501    0  0.00000000000E+00 -0.00000000000E+00 -0.46899246553E+00  0.46899939789E+00  0.25500000000E-02 0. -1.
         31    1    1    2    0    0  0.71625213628E+00 -0.36012110769E+00  0.59833296598E+02  0.60300290315E+02  0.74470750000E+01 0. -1.
        -31    1    1    2    0    0 -0.71625213628E+00  0.36012110769E+00  0.59320602865E+02  0.59791601038E+02  0.74470750000E+01 0. -1.
<mgrwt>
<rscale>  0 0.14980341E+02</rscale>
<asrwt>0</asrwt>
<pdfrwt beam="2">  1        2 0.99608608E+00 0.14980341E+02</pdfrwt>
<pdfrwt beam="1">  1       -2 0.99300378E+00 0.14980341E+02</pdfrwt>
<totfact>-0.90462293E-14</totfact>
</mgrwt>
</event>
<event>
 4    1 -0.5245809E-019  0.1496716E+02  0.7818608E-02  0.1869072E+00
          2   -1    0    0  501    0  0.00000000000E+00  0.00000000000E+00  0.11989596107E+03  0.11989596110E+03  0.25500000000E-02 0.  1.
         -2   -1    0    0    0  501 -0.00000000000E+00 -0.00000000000E+00 -0.46710136521E+00  0.46710832564E+00  0.25500000000E-02 0. -1.
         31    1    1    2    0    0 -0.73201106204E+00  0.81384285818E-01  0.60124322964E+02  0.60588246398E+02  0.74470750000E+01 0. -1.
        -31    1    1    2    0    0  0.73201106204E+00 -0.81384285818E-01  0.59304536739E+02  0.59774823023E+02  0.74470750000E+01 0. -1.
<mgrwt>
<rscale>  0 0.14967162E+02</rscale>
<asrwt>0</asrwt>
<pdfrwt beam="1">  1        2 0.99524607E+00 0.14967162E+02</pdfrwt>
<pdfrwt beam="2">  1       -2 0.99209407E+00 0.14967162E+02</pdfrwt>
<totfact>-0.79483851E-14</totfact>
</mgrwt>
</event>
<event>
 4    1 -0.5245809E-019  0.1498521E+02  0.7818608E-02  0.1868520E+00
          2   -1    0    0  501    0  0.00000000000E+00  0.00000000000E+00  0.11994837033E+03  0.11994837036E+03  0.25500000000E-02 0.  1.
         -2   -1    0    0    0  501 -0.00000000000E+00 -0.00000000000E+00 -0.46802417650E+00  0.46803112320E+00  0.25500000000E-02 0. -1.
         31    1    1    2    0    0  0.38874121843E+00  0.72729388789E+00  0.59840196235E+02  0.60307446370E+02  0.74470750000E+01 0.  1.
        -31    1    1    2    0    0 -0.38874121843E+00 -0.72729388789E+00  0.59640149920E+02  0.60108955112E+02  0.74470750000E+01 0.  1.
<mgrwt>
<rscale>  0 0.14985214E+02</rscale>
<asrwt>0</asrwt>
<pdfrwt beam="1">  1        2 0.99568706E+00 0.14985214E+02</pdfrwt>
<pdfrwt beam="2">  1       -2 0.99404810E+00 0.14985214E+02</pdfrwt>
<totfact>-0.10814269E-13</totfact>
</mgrwt>
</event>
<event>
 4    1 -0.5245809E-019  0.1498532E+02  0.7818608E-02  0.1868517E+00
         -2   -1    0    0    0  501 -0.00000000000E+00  0.00000000000E+00  0.12008705341E+03  0.12008705344E+03  0.25500000000E-02 0. -1.
          2   -1    0    0  501    0  0.00000000000E+00 -0.00000000000E+00 -0.46749000001E+00  0.46749695465E+00  0.25500000000E-02 0.  1.
         31    1    1    2    0    0 -0.51820616422E+00 -0.59451521764E+00  0.61763957592E+02  0.62216295047E+02  0.74470750000E+01 0. -1.
        -31    1    1    2    0    0  0.51820616422E+00  0.59451521764E+00  0.57855605821E+02  0.58338255347E+02  0.74470750000E+01 0.  1.
<mgrwt>
<rscale>  0 0.14985315E+02</rscale>
<asrwt>0</asrwt>
<pdfrwt beam="2">  1        2 0.99292242E+00 0.14985315E+02</pdfrwt>
<pdfrwt beam="1">  1       -2 0.99682937E+00 0.14985315E+02</pdfrwt>
<totfact>-0.11752107E-13</totfact>
</mgrwt>
</event>
<event>
 4    1  0.5245809E-019  0.1490353E+02  0.7818608E-02  0.1871027E+00
         -2   -1    0    0    0  501 -0.00000000000E+00  0.00000000000E+00  0.11885355937E+03  0.11885355940E+03  0.25500000000E-02 0. -1.
          2   -1    0    0  501    0  0.00000000000E+00 -0.00000000000E+00 -0.46720032820E+00  0.46720728715E+00  0.25500000000E-02 0.  1.
         31    1    1    2    0    0 -0.20974178556E+00  0.45861212194E-01  0.57957579709E+02  0.58434459582E+02  0.74470750000E+01 0. -1.
        -31    1    1    2    0    0  0.20974178556E+00 -0.45861212194E-01  0.60428779335E+02  0.60886307105E+02  0.74470750000E+01 0. -1.
<mgrwt>
<rscale>  0 0.14903535E+02</rscale>
<asrwt>0</asrwt>
<pdfrwt beam="2">  1        2 0.99226966E+00 0.14903535E+02</pdfrwt>
<pdfrwt beam="1">  1       -2 0.98662758E+00 0.14903535E+02</pdfrwt>
<totfact> 0.35474025E-13</totfact>
</mgrwt>
</event>
<event>
 4    1  0.5245809E-019  0.1490228E+02  0.7818608E-02  0.1871065E+00
          2   -1    0    0  501    0  0.00000000000E+00  0.00000000000E+00  0.11972355011E+03  0.11972355013E+03  0.25500000000E-02 0. -1.
         -2   -1    0    0    0  501 -0.00000000000E+00 -0.00000000000E+00 -0.46372720011E+00  0.46373421119E+00  0.25500000000E-02 0.  1.
         31    1    1    2    0    0 -0.15652148967E+00 -0.14349984845E+00  0.58626718341E+02  0.59098190502E+02  0.74470750000E+01 0. -1.
        -31    1    1    2    0    0  0.15652148967E+00  0.14349984845E+00  0.60633104567E+02  0.61089093844E+02  0.74470750000E+01 0. -1.
<mgrwt>
<rscale>  0 0.14902280E+02</rscale>
<asrwt>0</asrwt>
<pdfrwt beam="1">  1        2 0.99379256E+00 0.14902280E+02</pdfrwt>
<pdfrwt beam="2">  1       -2 0.98494981E+00 0.14902280E+02</pdfrwt>
<totfact> 0.54734251E-13</totfact>
</mgrwt>
</event>
<event>
 4    1 -0.5245809E-019  0.1493305E+02  0.7818608E-02  0.1870119E+00
         -2   -1    0    0    0  501 -0.00000000000E+00  0.00000000000E+00  0.11971334679E+03  0.11971334682E+03  0.25500000000E-02 0.  1.
          2   -1    0    0  501    0  0.00000000000E+00 -0.00000000000E+00 -0.46568365195E+00  0.46569063356E+00  0.25500000000E-02 0. -1.
         31    1    1    2    0    0 -0.36649018841E-01 -0.30983713110E+00  0.63156661740E+02  0.63594969851E+02  0.74470750000E+01 0.  1.
        -31    1    1    2    0    0  0.36649018841E-01  0.30983713110E+00  0.56091001399E+02  0.56584067600E+02  0.74470750000E+01 0. -1.
<mgrwt>
<rscale>  0 0.14933047E+02</rscale>
<asrwt>0</asrwt>
<pdfrwt beam="2">  1        2 0.98908879E+00 0.14933047E+02</pdfrwt>
<pdfrwt beam="1">  1       -2 0.99372437E+00 0.14933047E+02</pdfrwt>
<totfact>-0.18771510E-13</totfact>
</mgrwt>
</event>
<event>
 4    1 -0.5245809E-019  0.1493604E+02  0.7818608E-02  0.1870026E+00
          2   -1    0    0  501    0  0.00000000000E+00  0.00000000000E+00  0.11936265043E+03  0.11936265045E+03  0.25500000000E-02 0. -1.
         -2   -1    0    0    0  501 -0.00000000000E+00 -0.00000000000E+00 -0.46723946091E+00  0.46724641928E+00  0.25500000000E-02 0.  1.
         31    1    1    2    0    0  0.32802958635E+00 -0.20579568539E+00  0.62681604039E+02  0.63123627638E+02  0.74470750000E+01 0.  1.
        -31    1    1    2    0    0 -0.32802958635E+00  0.20579568539E+00  0.56213806928E+02  0.56706269236E+02  0.74470750000E+01 0. -1.
<mgrwt>
<rscale>  0 0.14936045E+02</rscale>
<asrwt>0</asrwt>
<pdfrwt beam="1">  1        2 0.99083743E+00 0.14936045E+02</pdfrwt>
<pdfrwt beam="2">  1       -2 0.99236902E+00 0.14936045E+02</pdfrwt>
<totfact>-0.12405315E-13</totfact>
</mgrwt>
</event>
<event>
 4    1  0.5245809E-019  0.1491729E+02  0.7818608E-02  0.1870603E+00
          2   -1    0    0  501    0  0.00000000000E+00  0.00000000000E+00  0.11992576173E+03  0.11992576176E+03  0.25500000000E-02 0.  1.
         -2   -1    0    0    0  501 -0.00000000000E+00 -0.00000000000E+00 -0.46387812503E+00  0.46388513382E+00  0.25500000000E-02 0. -1.
         31    1    1    2    0    0  0.23483060437E+00 -0.34080264277E+00  0.60003804009E+02  0.60465582884E+02  0.74470750000E+01 0.  1.
        -31    1    1    2    0    0 -0.23483060437E+00  0.34080264277E+00  0.59458079599E+02  0.59924064010E+02  0.74470750000E+01 0.  1.
<mgrwt>
<rscale>  0 0.14917287E+02</rscale>
<asrwt>0</asrwt>
<pdfrwt beam="1">  1        2 0.99546583E+00 0.14917287E+02</pdfrwt>
<pdfrwt beam="2">  1       -2 0.98527554E+00 0.14917287E+02</pdfrwt>
<totfact> 0.42512520E-13</totfact>
</mgrwt>
</event>
<event>
 4    1  0.5245809E-019  0.1493550E+02  0.7818608E-02  0.1870043E+00
          2   -1    0    0  501    0  0.00000000000E+00  0.00000000000E+00  0.12020735905E+03  0.12020735908E+03  0.25500000000E-02 0.  1.
         -2   -1    0    0    0  501 -0.00000000000E+00 -0.00000000000E+00 -0.46392210888E+00  0.46392911701E+00  0.25500000000E-02 0. -1.
         31    1    1    2    0    0 -0.26933953063E+00 -0.18172159404E+00  0.63510034732E+02  0.63945985051E+02  0.74470750000E+01 0.  1.
        -31    1    1    2    0    0  0.26933953063E+00  0.18172159404E+00  0.56233402209E+02  0.56725303142E+02  0.74470750000E+01 0. -1.
<mgrwt>
<rscale>  0 0.14935498E+02</rscale>
<asrwt>0</asrwt>
<pdfrwt beam="1">  1        2 0.99779464E+00 0.14935498E+02</pdfrwt>
<pdfrwt beam="2">  1       -2 0.98537750E+00 0.14935498E+02</pdfrwt>
<totfact> 0.25716041E-13</totfact>
</mgrwt>
</event>
<event>
 4    1  0.5245809E-019  0.1492899E+02  0.7818608E-02  0.1870243E+00
          2   -1    0    0  501    0  0.00000000000E+00  0.00000000000E+00  0.11971147325E+03  0.11971147328E+03  0.25500000000E-02 0. -1.
         -2   -1    0    0    0  501 -0.00000000000E+00 -0.00000000000E+00 -0.46543793409E+00  0.46544491939E+00  0.25500000000E-02 0.  1.
         31    1    1    2    0    0  0.43056177384E-01 -0.49041201548E+00  0.58561213444E+02  0.59034879553E+02  0.74470750000E+01 0.  1.
        -31    1    1    2    0    0 -0.43056177384E-01  0.49041201548E+00  0.60684821876E+02  0.61142038647E+02  0.74470750000E+01 0.  1.
<mgrwt>
<rscale>  0 0.14928990E+02</rscale>
<asrwt>0</asrwt>
<pdfrwt beam="1">  1        2 0.99370684E+00 0.14928990E+02</pdfrwt>
<pdfrwt beam="2">  1       -2 0.98856887E+00 0.14928990E+02</pdfrwt>
<totfact> 0.11718663E-13</totfact>
</mgrwt>
</event>
<event>
 4    1 -0.5245809E-019  0.1492006E+02  0.7818608E-02  0.1870518E+00
         -2   -1    0    0    0  501 -0.00000000000E+00  0.00000000000E+00  0.12025193633E+03  0.12025193636E+03  0.25500000000E-02 0. -1.
          2   -1    0    0  501    0  0.00000000000E+00 -0.00000000000E+00 -0.46279216210E+00  0.46279918734E+00  0.25500000000E-02 0.  1.
         31    1    1    2    0    0  0.28933924901E+00 -0.13428678044E+00  0.57448495835E+02  0.57930047038E+02  0.74470750000E+01 0. -1.
        -31    1    1    2    0    0 -0.28933924901E+00  0.13428678044E+00  0.62340648335E+02  0.62784688508E+02  0.74470750000E+01 0. -1.
<mgrwt>
<rscale>  0 0.14920064E+02</rscale>
<asrwt>0</asrwt>
<pdfrwt beam="2">  1        2 0.98298811E+00 0.14920064E+02</pdfrwt>
<pdfrwt beam="1">  1       -2 0.99815389E+00 0.14920064E+02</pdfrwt>
<totfact>-0.27012929E-13</totfact>
</mgrwt>
</event>
<event>
 4    1  0.5245809E-019  0.1495229E+02  0.7818608E-02  0.1869528E+00
         -2   -1    0    0    0  501 -0.00000000000E+00  0.00000000000E+00  0.11921186521E+03  0.11921186524E+03  0.25500000000E-02 0. -1.
          2   -1    0    0  501    0  0.00000000000E+00 -0.00000000000E+00 -0.46884887707E+00  0.46885581156E+00  0.25500000000E-02 0.  1.
         31    1    1    2    0    0  0.37194768570E+00  0.41242372166E+00  0.56537067519E+02  0.57028127868E+02  0.74470750000E+01 0.  1.
        -31    1    1    2    0    0 -0.37194768570E+00 -0.41242372166E+00  0.62205948815E+02  0.62652593182E+02  0.74470750000E+01 0. -1.
<mgrwt>
<rscale>  0 0.14952293E+02</rscale>
<asrwt>0</asrwt>
<pdfrwt beam="2">  1        2 0.99576891E+00 0.14952293E+02</pdfrwt>
<pdfrwt beam="1">  1       -2 0.98960394E+00 0.14952293E+02</pdfrwt>
<totfact> 0.29286058E-14</totfact>
</mgrwt>
</event>
<event>
 4    1 -0.5245809E-019  0.1499643E+02  0.7818608E-02  0.1868178E+00
         -2   -1    0    0    0  501 -0.00000000000E+00  0.00000000000E+00  0.12009980335E+03  0.12009980338E+03  0.25500000000E-02 0. -1.
          2   -1    0    0  501    0  0.00000000000E+00 -0.00000000000E+00 -0.46813394460E+00  0.46814088968E+00  0.25500000000E-02 0.  1.
         31    1    1    2    0    0  0.22051095668E+00 -0.20208064627E+00  0.53211328756E+02  0.53730753723E+02  0.74470750000E+01 0.  1.
        -31    1    1    2    0    0 -0.22051095668E+00  0.20208064627E+00  0.66420340654E+02  0.66837190548E+02  0.74470750000E+01 0. -1.
<mgrwt>
<rscale>  0 0.14996428E+02</rscale>
<asrwt>0</asrwt>
<pdfrwt beam="2">  1        2 0.99428521E+00 0.14996428E+02</pdfrwt>
<pdfrwt beam="1">  1       -2 0.99694012E+00 0.14996428E+02</pdfrwt>
<totfact>-0.10350082E-13</totfact>
</mgrwt>
</event>
<event>
 4    1  0.5245809E-019  0.1493288E+02  0.7818608E-02  0.1870124E+00
         -2   -1    0    0    0  501 -0.00000000000E+00  0.00000000000E+00  0.11919856092E+03  0.11919856094E+03  0.25500000000E-02 0. -1.
          2   -1    0    0  501    0  0.00000000000E+00 -0.00000000000E+00 -0.46768453651E+00  0.46769148826E+00  0.25500000000E-02 0.  1.
         31    1    1    2    0    0 -0.35257826808E+00 -0.38374924501E+00  0.58313232389E+02  0.58789145024E+02  0.74470750000E+01 0.  1.
        -31    1    1    2    0    0  0.35257826808E+00  0.38374924501E+00  0.60417643990E+02  0.60877107408E+02  0.74470750000E+01 0. -1.
<mgrwt>
<rscale>  0 0.14932882E+02</rscale>
<asrwt>0</asrwt>
<pdfrwt beam="2">  1        2 0.99330528E+00 0.14932882E+02</pdfrwt>
<pdfrwt beam="1">  1       -2 0.98948430E+00 0.14932882E+02</pdfrwt>
<totfact> 0.45751569E-14</totfact>
</mgrwt>
</event>
<event>
 4    1 -0.5245809E-019  0.1492473E+02  0.7818608E-02  0.1870374E+00
         -2   -1    0    0    0  501 -0.00000000000E+00  0.00000000000E+00  0.11995399591E+03  0.11995399593E+03  0.25500000000E-02 0.  1.
          2   -1    0    0  501    0  0.00000000000E+00 -0.00000000000E+00 -0.46423159757E+00  0.46423860102E+00  0.25500000000E-02 0. -1.
         31    1    1    2    0    0  0.33794710518E+00  0.24380347651E+00  0.61624726579E+02  0.62074467379E+02  0.74470750000E+01 0.  1.
        -31    1    1    2    0    0 -0.33794710518E+00 -0.24380347651E+00  0.57865037731E+02  0.58343767157E+02  0.74470750000E+01 0.  1.
<mgrwt>
<rscale>  0 0.14924726E+02</rscale>
<asrwt>0</asrwt>
<pdfrwt beam="2">  1        2 0.98602430E+00 0.14924726E+02</pdfrwt>
<pdfrwt beam="1">  1       -2 0.99570222E+00 0.14924726E+02</pdfrwt>
<totfact>-0.28491346E-13</totfact>
</mgrwt>
</event>
<event>
 4    1 -0.5245809E-019  0.1500208E+02  0.7818608E-02  0.1868005E+00
          2   -1    0    0  501    0  0.00000000000E+00  0.00000000000E+00  0.11956249611E+03  0.11956249613E+03  0.25500000000E-02 0.  1.
         -2   -1    0    0    0  501 -0.00000000000E+00 -0.00000000000E+00 -0.47059214033E+00  0.47059904913E+00  0.25500000000E-02 0. -1.
         31    1    1    2    0    0 -0.50903661278E+00 -0.73777346865E+00  0.59090999651E+02  0.59565162585E+02  0.74470750000E+01 0. -1.
        -31    1    1    2    0    0  0.50903661278E+00  0.73777346865E+00  0.60000904315E+02  0.60467932597E+02  0.74470750000E+01 0. -1.
<mgrwt>
<rscale>  0 0.15002078E+02</rscale>
<asrwt>0</asrwt>
<pdfrwt beam="1">  1        2 0.99251761E+00 0.15002078E+02</pdfrwt>
<pdfrwt beam="2">  1       -2 0.99946826E+00 0.15002078E+02</pdfrwt>
<totfact>-0.26175657E-14</totfact>
</mgrwt>
</event>
<event>
 4    1  0.5245809E-019  0.1490568E+02  0.7818608E-02  0.1870960E+00
          2   -1    0    0  501    0  0.00000000000E+00  0.00000000000E+00  0.11976256159E+03  0.11976256162E+03  0.25500000000E-02 0.  1.
         -2   -1    0    0    0  501 -0.00000000000E+00 -0.00000000000E+00 -0.46378758825E+00  0.46379459841E+00  0.25500000000E-02 0. -1.
         31    1    1    2    0    0 -0.37228242268E-01 -0.24619217311E+00  0.60896071320E+02  0.61350243886E+02  0.74470750000E+01 0. -1.
        -31    1    1    2    0    0  0.37228242268E-01  0.24619217311E+00  0.58402702680E+02  0.58876112329E+02  0.74470750000E+01 0. -1.
<mgrwt>
<rscale>  0 0.14905678E+02</rscale>
<asrwt>0</asrwt>
<pdfrwt beam="1">  1        2 0.99411563E+00 0.14905678E+02</pdfrwt>
<pdfrwt beam="2">  1       -2 0.98507881E+00 0.14905678E+02</pdfrwt>
<totfact> 0.51418274E-13</totfact>
</mgrwt>
</event>
<event>
 4    1 -0.5245809E-019  0.1494757E+02  0.7818608E-02  0.1869673E+00
         -2   -1    0    0    0  501 -0.00000000000E+00  0.00000000000E+00  0.12002185001E+03  0.12002185004E+03  0.25500000000E-02 0.  1.
          2   -1    0    0  501    0  0.00000000000E+00 -0.00000000000E+00 -0.46539073326E+00  0.46539771927E+00  0.25500000000E-02 0. -1.
         31    1    1    2    0    0 -0.35549197827E+00 -0.23949588435E+00  0.56042218342E+02  0.56536474029E+02  0.74470750000E+01 0.  1.
        -31    1    1    2    0    0  0.35549197827E+00  0.23949588435E+00  0.63514240937E+02  0.63950773731E+02  0.74470750000E+01 0. -1.
<mgrwt>
<rscale>  0 0.14947572E+02</rscale>
<asrwt>0</asrwt>
<pdfrwt beam="2">  1        2 0.98847891E+00 0.14947572E+02</pdfrwt>
<pdfrwt beam="1">  1       -2 0.99627287E+00 0.14947572E+02</pdfrwt>
<totfact>-0.19102913E-13</totfact>
</mgrwt>
</event>
<event>
 4    1  0.5245809E-019  0.1492225E+02  0.7818608E-02  0.1870450E+00
          2   -1    0    0  501    0  0.00000000000E+00  0.00000000000E+00  0.12035498306E+03  0.12035498309E+03  0.25500000000E-02 0. -1.
         -2   -1    0    0    0  501 -0.00000000000E+00 -0.00000000000E+00 -0.46253118634E+00  0.46253821554E+00  0.25500000000E-02 0.  1.
         31    1    1    2    0    0 -0.26986234260E+00  0.20658524953E+00  0.57464817671E+02  0.57946351905E+02  0.74470750000E+01 0.  1.
        -31    1    1    2    0    0  0.26986234260E+00 -0.20658524953E+00  0.62427634208E+02  0.62871169402E+02  0.74470750000E+01 0. -1.
<mgrwt>
<rscale>  0 0.14922246E+02</rscale>
<asrwt>0</asrwt>
<pdfrwt beam="1">  1        2 0.99900380E+00 0.14922246E+02</pdfrwt>
<pdfrwt beam="2">  1       -2 0.98243914E+00 0.14922246E+02</pdfrwt>
<totfact> 0.27447684E-13</totfact>
</mgrwt>
</event>
<event>
 4    1  0.5245809E-019  0.1492059E+02  0.7818608E-02  0.1870501E+00
          2   -1    0    0  501    0  0.00000000000E+00  0.00000000000E+00  0.12042807543E+03  0.12042807546E+03  0.25500000000E-02 0. -1.
         -2   -1    0    0    0  501 -0.00000000000E+00 -0.00000000000E+00 -0.46214804918E+00  0.46215508421E+00  0.25500000000E-02 0.  1.
         31    1    1    2    0    0  0.60451140152E-01 -0.30931825030E+00  0.62516372575E+02  0.62959154205E+02  0.74470750000E+01 0.  1.
        -31    1    1    2    0    0 -0.60451140152E-01  0.30931825030E+00  0.57449554809E+02  0.57931076340E+02  0.74470750000E+01 0.  1.
<mgrwt>
<rscale>  0 0.14920593E+02</rscale>
<asrwt>0</asrwt>
<pdfrwt beam="1">  1        2 0.99960501E+00 0.14920593E+02</pdfrwt>
<pdfrwt beam="2">  1       -2 0.98163075E+00 0.14920593E+02</pdfrwt>
<totfact> 0.13669413E-13</totfact>
</mgrwt>
</event>
<event>
 4    1 -0.5245809E-019  0.1491551E+02  0.7818608E-02  0.1870658E+00
          2   -1    0    0  501    0  0.00000000000E+00  0.00000000000E+00  0.11822160743E+03  0.11822160746E+03  0.25500000000E-02 0. -1.
         -2   -1    0    0    0  501 -0.00000000000E+00 -0.00000000000E+00 -0.47045291327E+00  0.47045982411E+00  0.25500000000E-02 0.  1.
         31    1    1    2    0    0 -0.92668730476E-01  0.28440554399E+00  0.56774532752E+02  0.57261644836E+02  0.74470750000E+01 0.  1.
        -31    1    1    2    0    0  0.92668730476E-01 -0.28440554399E+00  0.60976621762E+02  0.61430422443E+02  0.74470750000E+01 0.  1.
<mgrwt>
<rscale>  0 0.14915510E+02</rscale>
<asrwt>0</asrwt>
<pdfrwt beam="1">  1        2 0.98142906E+00 0.14915510E+02</pdfrwt>
<pdfrwt beam="2">  1       -2 0.99912931E+00 0.14915510E+02</pdfrwt>
<totfact>-0.18056921E-13</totfact>
</mgrwt>
</event>
<event>
 4    1 -0.5245809E-019  0.1495347E+02  0.7818608E-02  0.1869492E+00
          2   -1    0    0  501    0  0.00000000000E+00  0.00000000000E+00  0.11908771642E+03  0.11908771644E+03  0.25500000000E-02 0. -1.
         -2   -1    0    0    0  501 -0.00000000000E+00 -0.00000000000E+00 -0.46941174200E+00  0.46941866817E+00  0.25500000000E-02 0.  1.
         31    1    1    2    0    0  0.43805654111E+00  0.42382908047E+00  0.57176684748E+02  0.57662845311E+02  0.74470750000E+01 0.  1.
        -31    1    1    2    0    0 -0.43805654111E+00 -0.42382908047E+00  0.61441619927E+02  0.61894289801E+02  0.74470750000E+01 0. -1.
<mgrwt>
<rscale>  0 0.14953473E+02</rscale>
<asrwt>0</asrwt>
<pdfrwt beam="1">  1        2 0.98858204E+00 0.14953473E+02</pdfrwt>
<pdfrwt beam="2">  1       -2 0.99695557E+00 0.14953473E+02</pdfrwt>
<totfact>-0.16801123E-13</totfact>
</mgrwt>
</event>
<event>
 4    1 -0.5245809E-019  0.1491254E+02  0.7818608E-02  0.1870749E+00
          2   -1    0    0  501    0  0.00000000000E+00  0.00000000000E+00  0.11852960161E+03  0.11852960163E+03  0.25500000000E-02 0.  1.
         -2   -1    0    0    0  501 -0.00000000000E+00 -0.00000000000E+00 -0.46904348265E+00  0.46905041426E+00  0.25500000000E-02 0. -1.
         31    1    1    2    0    0  0.21023484753E+00 -0.45820245632E-01  0.61433859280E+02  0.61883958263E+02  0.74470750000E+01 0.  1.
        -31    1    1    2    0    0 -0.21023484753E+00  0.45820245632E-01  0.56626698843E+02  0.57114693784E+02  0.74470750000E+01 0. -1.
<mgrwt>
<rscale>  0 0.14912539E+02</rscale>
<asrwt>0</asrwt>
<pdfrwt beam="1">  1        2 0.98396411E+00 0.14912539E+02</pdfrwt>
<pdfrwt beam="2">  1       -2 0.99615812E+00 0.14912539E+02</pdfrwt>
<totfact>-0.37945451E-13</totfact>
</mgrwt>
</event>
<event>
 4    1  0.5245809E-019  0.1493847E+02  0.7818608E-02  0.1869952E+00
         -2   -1    0    0    0  501 -0.00000000000E+00  0.00000000000E+00  0.11856261692E+03  0.11856261695E+03  0.25500000000E-02 0. -1.
          2   -1    0    0  501    0  0.00000000000E+00 -0.00000000000E+00 -0.47054504661E+00  0.47055195610E+00  0.25500000000E-02 0.  1.
         31    1    1    2    0    0 -0.85649975923E-01  0.74525184212E-01  0.54555112609E+02  0.55061167149E+02  0.74470750000E+01 0.  1.
        -31    1    1    2    0    0  0.85649975923E-01 -0.74525184212E-01  0.63536959265E+02  0.63972001756E+02  0.74470750000E+01 0. -1.
<mgrwt>
<rscale>  0 0.14938469E+02</rscale>
<asrwt>0</asrwt>
<pdfrwt beam="2">  1        2 0.99933560E+00 0.14938469E+02</pdfrwt>
<pdfrwt beam="1">  1       -2 0.98424952E+00 0.14938469E+02</pdfrwt>
<totfact> 0.12542288E-13</totfact>
</mgrwt>
</event>
<event>
 4    1 -0.5245809E-019  0.1496923E+02  0.7818608E-02  0.1869009E+00
         -2   -1    0    0    0  501 -0.00000000000E+00  0.00000000000E+00  0.11980000365E+03  0.11980000367E+03  0.25500000000E-02 0.  1.
          2   -1    0    0  501    0  0.00000000000E+00 -0.00000000000E+00 -0.46760446608E+00  0.46761141902E+00  0.25500000000E-02 0. -1.
         31    1    1    2    0    0 -0.37666224403E+00  0.57168889446E+00  0.62100583643E+02  0.62549261526E+02  0.74470750000E+01 0.  1.
        -31    1    1    2    0    0  0.37666224403E+00 -0.57168889446E+00  0.57231815538E+02  0.57718353567E+02  0.74470750000E+01 0.  1.
<mgrwt>
<rscale>  0 0.14969227E+02</rscale>
<asrwt>0</asrwt>
<pdfrwt beam="2">  1        2 0.99315537E+00 0.14969227E+02</pdfrwt>
<pdfrwt beam="1">  1       -2 0.99445679E+00 0.14969227E+02</pdfrwt>
<totfact>-0.13913372E-13</totfact>
</mgrwt>
</event>
<event>
 4    1 -0.5245809E-019  0.1501616E+02  0.7818608E-02  0.1867576E+00
         -2   -1    0    0    0  501 -0.00000000000E+00  0.00000000000E+00  0.12022884903E+03  0.12022884906E+03  0.25500000000E-02 0.  1.
          2   -1    0    0  501    0  0.00000000000E+00 -0.00000000000E+00 -0.46886306145E+00  0.46886999573E+00  0.25500000000E-02 0. -1.
         31    1    1    2    0    0 -0.66432695414E+00  0.68620111921E+00  0.59981029170E+02  0.60449110735E+02  0.74470750000E+01 0.  1.
        -31    1    1    2    0    0  0.66432695414E+00 -0.68620111921E+00  0.59778956801E+02  0.60248608320E+02  0.74470750000E+01 0. -1.
<mgrwt>
<rscale>  0 0.15016163E+02</rscale>
<asrwt>0</asrwt>
<pdfrwt beam="2">  1        2 0.99583191E+00 0.15016163E+02</pdfrwt>
<pdfrwt beam="1">  1       -2 0.99801319E+00 0.15016163E+02</pdfrwt>
<totfact>-0.63919763E-14</totfact>
</mgrwt>
</event>
<event>
 4    1  0.5245809E-019  0.1489744E+02  0.7818608E-02  0.1871214E+00
         -2   -1    0    0    0  501 -0.00000000000E+00  0.00000000000E+00  0.11798065864E+03  0.11798065867E+03  0.25500000000E-02 0. -1.
          2   -1    0    0  501    0  0.00000000000E+00 -0.00000000000E+00 -0.47027219309E+00  0.47027910659E+00  0.25500000000E-02 0.  1.
         31    1    1    2    0    0  0.32646809412E-01 -0.15151814913E+00  0.58930216707E+02  0.59399102609E+02  0.74470750000E+01 0. -1.
        -31    1    1    2    0    0 -0.32646809412E-01  0.15151814913E+00  0.58580169744E+02  0.59051835169E+02  0.74470750000E+01 0.  1.
<mgrwt>
<rscale>  0 0.14897441E+02</rscale>
<asrwt>0</asrwt>
<pdfrwt beam="2">  1        2 0.99873895E+00 0.14897441E+02</pdfrwt>
<pdfrwt beam="1">  1       -2 0.97943523E+00 0.14897441E+02</pdfrwt>
<totfact> 0.58360329E-13</totfact>
</mgrwt>
</event>
<event>
 4    1 -0.5245809E-019  0.1496386E+02  0.7818608E-02  0.1869173E+00
          2   -1    0    0  501    0  0.00000000000E+00  0.00000000000E+00  0.11955565369E+03  0.11955565372E+03  0.25500000000E-02 0. -1.
         -2   -1    0    0    0  501 -0.00000000000E+00 -0.00000000000E+00 -0.46822402566E+00  0.46823096940E+00  0.25500000000E-02 0.  1.
         31    1    1    2    0    0  0.43329969303E+00  0.53234269417E+00  0.61322558338E+02  0.61776906888E+02  0.74470750000E+01 0. -1.
        -31    1    1    2    0    0 -0.43329969303E+00 -0.53234269417E+00  0.57764871326E+02  0.58246977799E+02  0.74470750000E+01 0. -1.
<mgrwt>
<rscale>  0 0.14963856E+02</rscale>
<asrwt>0</asrwt>
<pdfrwt beam="1">  1        2 0.99244146E+00 0.14963856E+02</pdfrwt>
<pdfrwt beam="2">  1       -2 0.99445821E+00 0.14963856E+02</pdfrwt>
<totfact>-0.14645475E-13</totfact>
</mgrwt>
</event>
<event>
 4    1  0.5245809E-019  0.1493673E+02  0.7818608E-02  0.1870005E+00
          2   -1    0    0  501    0  0.00000000000E+00  0.00000000000E+00  0.12009630848E+03  0.12009630850E+03  0.25500000000E-02 0.  1.
         -2   -1    0    0    0  501 -0.00000000000E+00 -0.00000000000E+00 -0.46442752928E+00  0.46443452978E+00  0.25500000000E-02 0. -1.
         31    1    1    2    0    0 -0.50490484634E+00 -0.19012693161E+00  0.61128689357E+02  0.61583006306E+02  0.74470750000E+01 0.  1.
        -31    1    1    2    0    0  0.50490484634E+00  0.19012693161E+00  0.58503191590E+02  0.58977736726E+02  0.74470750000E+01 0.  1.
<mgrwt>
<rscale>  0 0.14936727E+02</rscale>
<asrwt>0</asrwt>
<pdfrwt beam="1">  1        2 0.99688058E+00 0.14936727E+02</pdfrwt>
<pdfrwt beam="2">  1       -2 0.98644336E+00 0.14936727E+02</pdfrwt>
<totfact> 0.23142593E-13</totfact>
</mgrwt>
</event>
<event>
 4    1  0.5245809E-019  0.1491243E+02  0.7818608E-02  0.1870752E+00
          2   -1    0    0  501    0  0.00000000000E+00  0.00000000000E+00  0.11940554994E+03  0.11940554997E+03  0.25500000000E-02 0.  1.
         -2   -1    0    0    0  501 -0.00000000000E+00 -0.00000000000E+00 -0.46559596880E+00  0.46560295174E+00  0.25500000000E-02 0. -1.
         31    1    1    2    0    0  0.11638603591E+00  0.34981321814E+00  0.59325776652E+02  0.59792496322E+02  0.74470750000E+01 0.  1.
        -31    1    1    2    0    0 -0.11638603591E+00 -0.34981321814E+00  0.59614177319E+02  0.60078656597E+02  0.74470750000E+01 0.  1.
<mgrwt>
<rscale>  0 0.14912433E+02</rscale>
<asrwt>0</asrwt>
<pdfrwt beam="1">  1        2 0.99117856E+00 0.14912433E+02</pdfrwt>
<pdfrwt beam="2">  1       -2 0.98889341E+00 0.14912433E+02</pdfrwt>
<totfact> 0.10823449E-13</totfact>
</mgrwt>
</event>
<event>
 4    1 -0.5245809E-019  0.1493742E+02  0.7818608E-02  0.1869984E+00
         -2   -1    0    0    0  501 -0.00000000000E+00  0.00000000000E+00  0.12030120521E+03  0.12030120523E+03  0.25500000000E-02 0.  1.
          2   -1    0    0  501    0  0.00000000000E+00 -0.00000000000E+00 -0.46367975222E+00  0.46368676401E+00  0.25500000000E-02 0. -1.
         31    1    1    2    0    0 -0.44816054350E+00  0.34262255739E+00  0.60460734418E+02  0.60920255831E+02  0.74470750000E+01 0.  1.
        -31    1    1    2    0    0  0.44816054350E+00 -0.34262255739E+00  0.59376791037E+02  0.59844636168E+02  0.74470750000E+01 0.  1.
<mgrwt>
<rscale>  0 0.14937424E+02</rscale>
<asrwt>0</asrwt>
<pdfrwt beam="2">  1        2 0.98486766E+00 0.14937424E+02</pdfrwt>
<pdfrwt beam="1">  1       -2 0.99856862E+00 0.14937424E+02</pdfrwt>
<totfact>-0.15904791E-13</totfact>
</mgrwt>
</event>
<event>
 4    1 -0.5245809E-019  0.1493942E+02  0.7818608E-02  0.1869923E+00
          2   -1    0    0  501    0  0.00000000000E+00  0.00000000000E+00  0.11898846668E+03  0.11898846671E+03  0.25500000000E-02 0. -1.
         -2   -1    0    0    0  501 -0.00000000000E+00 -0.00000000000E+00 -0.46892052160E+00  0.46892745502E+00  0.25500000000E-02 0.  1.
         31    1    1    2    0    0  0.17181534970E+00 -0.55315778627E+00  0.58891646641E+02  0.59363460767E+02  0.74470750000E+01 0.  1.
        -31    1    1    2    0    0 -0.17181534970E+00  0.55315778627E+00  0.59627899516E+02  0.60093933394E+02  0.74470750000E+01 0. -1.
<mgrwt>
<rscale>  0 0.14939418E+02</rscale>
<asrwt>0</asrwt>
<pdfrwt beam="1">  1        2 0.98775731E+00 0.14939418E+02</pdfrwt>
<pdfrwt beam="2">  1       -2 0.99591314E+00 0.14939418E+02</pdfrwt>
<totfact>-0.21810113E-13</totfact>
</mgrwt>
</event>
<event>
 4    1 -0.5245809E-019  0.1496489E+02  0.7818608E-02  0.1869142E+00
         -2   -1    0    0    0  501 -0.00000000000E+00  0.00000000000E+00  0.12036667094E+03  0.12036667096E+03  0.25500000000E-02 0.  1.
          2   -1    0    0  501    0  0.00000000000E+00 -0.00000000000E+00 -0.46513363607E+00  0.46514062595E+00  0.25500000000E-02 0. -1.
         31    1    1    2    0    0  0.56437186672E+00 -0.27280911332E+00  0.56982472171E+02  0.57470461988E+02  0.74470750000E+01 0. -1.
        -31    1    1    2    0    0 -0.56437186672E+00  0.27280911332E+00  0.62919065129E+02  0.63361349600E+02  0.74470750000E+01 0. -1.
<mgrwt>
<rscale>  0 0.14964894E+02</rscale>
<asrwt>0</asrwt>
<pdfrwt beam="2">  1        2 0.98794588E+00 0.14964894E+02</pdfrwt>
<pdfrwt beam="1">  1       -2 0.99912196E+00 0.14964894E+02</pdfrwt>
<totfact>-0.64804455E-14</totfact>
</mgrwt>
</event>
<event>
 4    1  0.5245809E-019  0.1491112E+02  0.7818608E-02  0.1870793E+00
         -2   -1    0    0    0  501 -0.00000000000E+00  0.00000000000E+00  0.11813252040E+03  0.11813252043E+03  0.25500000000E-02 0.  1.
          2   -1    0    0  501    0  0.00000000000E+00 -0.00000000000E+00 -0.47053036057E+00  0.47053727027E+00  0.25500000000E-02 0. -1.
         31    1    1    2    0    0 -0.49184074622E-01  0.30217099546E+00  0.57392741364E+02  0.57874687158E+02  0.74470750000E+01 0. -1.
        -31    1    1    2    0    0  0.49184074622E-01 -0.30217099546E+00  0.60269248680E+02  0.60728370544E+02  0.74470750000E+01 0.  1.
<mgrwt>
<rscale>  0 0.14911116E+02</rscale>
<asrwt>0</asrwt>
<pdfrwt beam="2">  1        2 0.99929015E+00 0.14911116E+02</pdfrwt>
<pdfrwt beam="1">  1       -2 0.98069306E+00 0.14911116E+02</pdfrwt>
<totfact> 0.28216394E-13</totfact>
</mgrwt>
</event>
<event>
 4    1  0.5245809E-019  0.1494429E+02  0.7818608E-02  0.1869773E+00
         -2   -1    0    0    0  501 -0.00000000000E+00  0.00000000000E+00  0.11909842029E+03  0.11909842032E+03  0.25500000000E-02 0. -1.
          2   -1    0    0  501    0  0.00000000000E+00 -0.00000000000E+00 -0.46879346545E+00  0.46880040075E+00  0.25500000000E-02 0.  1.
         31    1    1    2    0    0  0.59886384767E+00 -0.12257733066E+00  0.59472465411E+02  0.59940026120E+02  0.74470750000E+01 0. -1.
        -31    1    1    2    0    0 -0.59886384767E+00  0.12257733066E+00  0.59157161417E+02  0.59627194601E+02  0.74470750000E+01 0. -1.
<mgrwt>
<rscale>  0 0.14944294E+02</rscale>
<asrwt>0</asrwt>
<pdfrwt beam="2">  1        2 0.99564797E+00 0.14944294E+02</pdfrwt>
<pdfrwt beam="1">  1       -2 0.98866544E+00 0.14944294E+02</pdfrwt>
<totfact> 0.90195121E-14</totfact>
</mgrwt>
</event>
<event>
 4    1 -0.5245809E-019  0.1490279E+02  0.7818608E-02  0.1871049E+00
          2   -1    0    0  501    0  0.00000000000E+00  0.00000000000E+00  0.11871341425E+03  0.11871341428E+03  0.25500000000E-02 0. -1.
         -2   -1    0    0    0  501 -0.00000000000E+00 -0.00000000000E+00 -0.46770507467E+00  0.46771202611E+00  0.25500000000E-02 0.  1.
         31    1    1    2    0    0  0.13648603508E+00  0.13393117114E+00  0.57789686363E+02  0.58267858567E+02  0.74470750000E+01 0.  1.
        -31    1    1    2    0    0 -0.13648603508E+00 -0.13393117114E+00  0.60456022813E+02  0.60913267737E+02  0.74470750000E+01 0. -1.
<mgrwt>
<rscale>  0 0.14902789E+02</rscale>
<asrwt>0</asrwt>
<pdfrwt beam="1">  1        2 0.98547294E+00 0.14902789E+02</pdfrwt>
<pdfrwt beam="2">  1       -2 0.99333286E+00 0.14902789E+02</pdfrwt>
<totfact>-0.29454630E-13</totfact>
</mgrwt>
</event>
<event>
 4    1  0.5245809E-019  0.1490975E+02  0.7818608E-02  0.1870835E+00
          2   -1    0    0  501    0  0.00000000000E+00  0.00000000000E+00  0.12011932520E+03  0.12011932522E+03  0.25500000000E-02 0. -1.
         -2   -1    0    0    0  501 -0.00000000000E+00 -0.00000000000E+00 -0.46266271135E+00  0.46266973855E+00  0.25500000000E-02 0.  1.
         31    1    1    2    0    0  0.29340007056E+00  0.61328812395E-01  0.61142067020E+02  0.61594651800E+02  0.74470750000E+01 0.  1.
        -31    1    1    2    0    0 -0.29340007056E+00 -0.61328812395E-01  0.58514595465E+02  0.58987343162E+02  0.74470750000E+01 0. -1.
<mgrwt>
<rscale>  0 0.14909750E+02</rscale>
<asrwt>0</asrwt>
<pdfrwt beam="1">  1        2 0.99705630E+00 0.14909750E+02</pdfrwt>
<pdfrwt beam="2">  1       -2 0.98271005E+00 0.14909750E+02</pdfrwt>
<totfact> 0.61800020E-13</totfact>
</mgrwt>
</event>
<event>
 4    1 -0.5245809E-019  0.1489604E+02  0.7818608E-02  0.1871258E+00
         -2   -1    0    0    0  501 -0.00000000000E+00  0.00000000000E+00  0.11977950909E+03  0.11977950911E+03  0.25500000000E-02 0. -1.
          2   -1    0    0  501    0  0.00000000000E+00 -0.00000000000E+00 -0.46312251657E+00  0.46312953679E+00  0.25500000000E-02 0.  1.
         31    1    1    2    0    0  0.25167355515E-01 -0.51115336455E-01  0.60498591714E+02  0.60955244004E+02  0.74470750000E+01 0. -1.
        -31    1    1    2    0    0 -0.25167355515E-01  0.51115336455E-01  0.58817794856E+02  0.59287394646E+02  0.74470750000E+01 0.  1.
<mgrwt>
<rscale>  0 0.14896041E+02</rscale>
<asrwt>0</asrwt>
<pdfrwt beam="2">  1        2 0.98367221E+00 0.14896041E+02</pdfrwt>
<pdfrwt beam="1">  1       -2 0.99425027E+00 0.14896041E+02</pdfrwt>
<totfact>-0.42903935E-13</totfact>
</mgrwt>
</event>
<event>
 4    1 -0.5245809E-019  0.1495564E+02  0.7818608E-02  0.1869425E+00
         -2   -1    0    0    0  501 -0.00000000000E+00  0.00000000000E+00  0.12039789839E+03  0.12039789842E+03  0.25500000000E-02 0. -1.
          2   -1    0    0  501    0  0.00000000000E+00 -0.00000000000E+00 -0.46443830612E+00  0.46444530646E+00  0.25500000000E-02 0.  1.
         31    1    1    2    0    0 -0.28060993289E+00 -0.43419321825E+00  0.56429067349E+02  0.56920697761E+02  0.74470750000E+01 0.  1.
        -31    1    1    2    0    0  0.28060993289E+00  0.43419321825E+00  0.63504392734E+02  0.63941645962E+02  0.74470750000E+01 0. -1.
<mgrwt>
<rscale>  0 0.14955644E+02</rscale>
<asrwt>0</asrwt>
<pdfrwt beam="2">  1        2 0.98647568E+00 0.14955644E+02</pdfrwt>
<pdfrwt beam="1">  1       -2 0.99937442E+00 0.14955644E+02</pdfrwt>
<totfact>-0.57790168E-14</totfact>
</mgrwt>
</event>
<event>
 4    1 -0.5245809E-019  0.1494411E+02  0.7818608E-02  0.1869779E+00
         -2   -1    0    0    0  501 -0.00000000000E+00  0.00000000000E+00  0.12000372728E+03  0.12000372731E+03  0.25500000000E-02 0.  1.
          2   -1    0    0  501    0  0.00000000000E+00 -0.00000000000E+00 -0.46524525184E+00  0.46525224003E+00  0.25500000000E-02 0. -1.
         31    1    1    2    0    0  0.22633077765E+00 -0.55980590838E+00  0.59045851835E+02  0.59516688023E+02  0.74470750000E+01 0. -1.
        -31    1    1    2    0    0 -0.22633077765E+00  0.55980590838E+00  0.60492630195E+02  0.60952291526E+02  0.74470750000E+01 0. -1.
<mgrwt>
<rscale>  0 0.14944107E+02</rscale>
<asrwt>0</asrwt>
<pdfrwt beam="2">  1        2 0.98817053E+00 0.14944107E+02</pdfrwt>
<pdfrwt beam="1">  1       -2 0.99612181E+00 0.14944107E+02</pdfrwt>
<totfact>-0.20219629E-13</totfact>
</mgrwt>
</event>
<event>
 4    1 -0.5245809E-019  0.1491704E+02  0.7818608E-02  0.1870611E+00
          2   -1    0    0  501    0  0.00000000000E+00  0.00000000000E+00  0.11867652986E+03  0.11867652988E+03  0.25500000000E-02 0. -1.
         -2   -1    0    0    0  501 -0.00000000000E+00 -0.00000000000E+00 -0.46874557602E+00  0.46875251204E+00  0.25500000000E-02 0.  1.
         31    1    1    2    0    0  0.15043839858E+00 -0.32586470531E+00  0.57471539430E+02  0.57953132703E+02  0.74470750000E+01 0. -1.
        -31    1    1    2    0    0 -0.15043839858E+00  0.32586470531E+00  0.60736244851E+02  0.61192149694E+02  0.74470750000E+01 0. -1.
<mgrwt>
<rscale>  0 0.14917039E+02</rscale>
<asrwt>0</asrwt>
<pdfrwt beam="1">  1        2 0.98517656E+00 0.14917039E+02</pdfrwt>
<pdfrwt beam="2">  1       -2 0.99553278E+00 0.14917039E+02</pdfrwt>
<totfact>-0.32964097E-13</totfact>
</mgrwt>
</event>
<event>
 4    1 -0.5245809E-019  0.1497184E+02  0.7818608E-02  0.1868929E+00
          2   -1    0    0  501    0  0.00000000000E+00  0.00000000000E+00  0.11927657283E+03  0.11927657286E+03  0.25500000000E-02 0. -1.
         -2   -1    0    0    0  501 -0.00000000000E+00 -0.00000000000E+00 -0.46982061974E+00  0.46982753988E+00  0.25500000000E-02 0.  1.
         31    1    1    2    0    0 -0.31696260557E+00  0.48154495556E+00  0.55422499790E+02  0.55923561759E+02  0.74470750000E+01 0.  1.
        -31    1    1    2    0    0  0.31696260557E+00 -0.48154495556E+00  0.63384252419E+02  0.63822838636E+02  0.74470750000E+01 0.  1.
<mgrwt>
<rscale>  0 0.14971841E+02</rscale>
<asrwt>0</asrwt>
<pdfrwt beam="1">  1        2 0.99014702E+00 0.14971841E+02</pdfrwt>
<pdfrwt beam="2">  1       -2 0.99782674E+00 0.14971841E+02</pdfrwt>
<totfact>-0.11181518E-13</totfact>
</mgrwt>
</event>
<event>
 4    1 -0.5245809E-019  0.1500712E+02  0.7818608E-02  0.1867851E+00
         -2   -1    0    0    0  501 -0.00000000000E+00  0.00000000000E+00  0.12013577092E+03  0.12013577095E+03  0.25500000000E-02 0.  1.
          2   -1    0    0  501    0  0.00000000000E+00 -0.00000000000E+00 -0.46866144961E+00  0.46866838687E+00  0.25500000000E-02 0. -1.
         31    1    1    2    0    0  0.13877434600E+00  0.89630465361E+00  0.58644858797E+02  0.59122762196E+02  0.74470750000E+01 0.  1.
        -31    1    1    2    0    0 -0.13877434600E+00 -0.89630465361E+00  0.61022250678E+02  0.61481677142E+02  0.74470750000E+01 0.  1.
<mgrwt>
<rscale>  0 0.15007122E+02</rscale>
<asrwt>0</asrwt>
<pdfrwt beam="2">  1        2 0.99540238E+00 0.15007122E+02</pdfrwt>
<pdfrwt beam="1">  1       -2 0.99724189E+00 0.15007122E+02</pdfrwt>
<totfact>-0.86428095E-14</totfact>
</mgrwt>
</event>
<event>
 4    1 -0.5245809E-019  0.1497709E+02  0.7818608E-02  0.1868768E+00
          2   -1    0    0  501    0  0.00000000000E+00  0.00000000000E+00  0.12002396188E+03  0.12002396191E+03  0.25500000000E-02 0.  1.
         -2   -1    0    0    0  501 -0.00000000000E+00 -0.00000000000E+00 -0.46722261194E+00  0.46722957056E+00  0.25500000000E-02 0. -1.
         31    1    1    2    0    0  0.73903964347E+00  0.11682057563E-01  0.57603416405E+02  0.58087510049E+02  0.74470750000E+01 0.  1.
        -31    1    1    2    0    0 -0.73903964347E+00 -0.11682057563E-01  0.61953322862E+02  0.62403681428E+02  0.74470750000E+01 0.  1.
<mgrwt>
<rscale>  0 0.14977093E+02</rscale>
<asrwt>0</asrwt>
<pdfrwt beam="1">  1        2 0.99630547E+00 0.14977093E+02</pdfrwt>
<pdfrwt beam="2">  1       -2 0.99235470E+00 0.14977093E+02</pdfrwt>
<totfact>-0.75017920E-14</totfact>
</mgrwt>
</event>
<event>
 4    1  0.5245809E-019  0.1490974E+02  0.7818608E-02  0.1870835E+00
         -2   -1    0    0    0  501 -0.00000000000E+00  0.00000000000E+00  0.11874180646E+03  0.11874180649E+03  0.25500000000E-02 0. -1.
          2   -1    0    0  501    0  0.00000000000E+00 -0.00000000000E+00 -0.46802981475E+00  0.46803676137E+00  0.25500000000E-02 0.  1.
         31    1    1    2    0    0  0.16085608312E+00  0.25162345029E+00  0.57822952285E+02  0.58301302953E+02  0.74470750000E+01 0.  1.
        -31    1    1    2    0    0 -0.16085608312E+00 -0.25162345029E+00  0.60450824365E+02  0.60908540301E+02  0.74470750000E+01 0. -1.
<mgrwt>
<rscale>  0 0.14909745E+02</rscale>
<asrwt>0</asrwt>
<pdfrwt beam="2">  1        2 0.99402077E+00 0.14909745E+02</pdfrwt>
<pdfrwt beam="1">  1       -2 0.98571039E+00 0.14909745E+02</pdfrwt>
<totfact> 0.42843241E-13</totfact>
</mgrwt>
</event>
<event>
 4    1 -0.5245809E-019  0.1495561E+02  0.7818608E-02  0.1869426E+00
          2   -1    0    0  501    0  0.00000000000E+00  0.00000000000E+00  0.11956479393E+03  0.11956479395E+03  0.25500000000E-02 0. -1.
         -2   -1    0    0    0  501 -0.00000000000E+00 -0.00000000000E+00 -0.46767213722E+00  0.46767908915E+00  0.25500000000E-02 0.  1.
         31    1    1    2    0    0  0.40543691847E+00  0.52688522360E+00  0.58513610017E+02  0.58989350483E+02  0.74470750000E+01 0. -1.
        -31    1    1    2    0    0 -0.40543691847E+00 -0.52688522360E+00  0.60583511774E+02  0.61043122561E+02  0.74470750000E+01 0.  1.
<mgrwt>
<rscale>  0 0.14955607E+02</rscale>
<asrwt>0</asrwt>
<pdfrwt beam="1">  1        2 0.99251247E+00 0.14955607E+02</pdfrwt>
<pdfrwt beam="2">  1       -2 0.99329094E+00 0.14955607E+02</pdfrwt>
<totfact>-0.13266282E-13</totfact>
</mgrwt>
</event>
<event>
 4    1 -0.5245809E-019  0.1491964E+02  0.7818608E-02  0.1870531E+00
         -2   -1    0    0    0  501 -0.00000000000E+00  0.00000000000E+00  0.12020280549E+03  0.12020280552E+03  0.25500000000E-02 0. -1.
          2   -1    0    0  501    0  0.00000000000E+00 -0.00000000000E+00 -0.46295529303E+00  0.46296231579E+00  0.25500000000E-02 0.  1.
         31    1    1    2    0    0 -0.35397514832E+00 -0.25342879722E+00  0.60050728157E+02  0.60512299599E+02  0.74470750000E+01 0.  1.
        -31    1    1    2    0    0  0.35397514832E+00  0.25342879722E+00  0.59689122043E+02  0.60153468236E+02  0.74470750000E+01 0.  1.
<mgrwt>
<rscale>  0 0.14919645E+02</rscale>
<asrwt>0</asrwt>
<pdfrwt beam="2">  1        2 0.98333173E+00 0.14919645E+02</pdfrwt>
<pdfrwt beam="1">  1       -2 0.99774899E+00 0.14919645E+02</pdfrwt>
<totfact>-0.29865175E-13</totfact>
</mgrwt>
</event>
<event>
 4    1 -0.5245809E-019  0.1493428E+02  0.7818608E-02  0.1870081E+00
         -2   -1    0    0    0  501 -0.00000000000E+00  0.00000000000E+00  0.12002193334E+03  0.12002193337E+03  0.25500000000E-02 0. -1.
          2   -1    0    0  501    0  0.00000000000E+00 -0.00000000000E+00 -0.46456288615E+00  0.46456988462E+00  0.25500000000E-02 0.  1.
         31    1    1    2    0    0  0.14401119197E+00 -0.28153868136E+00  0.63379752375E+02  0.63816549110E+02  0.74470750000E+01 0. -1.
        -31    1    1    2    0    0 -0.14401119197E+00  0.28153868136E+00  0.56177618080E+02  0.56669954142E+02  0.74470750000E+01 0.  1.
<mgrwt>
<rscale>  0 0.14934277E+02</rscale>
<asrwt>0</asrwt>
<pdfrwt beam="2">  1        2 0.98672739E+00 0.14934277E+02</pdfrwt>
<pdfrwt beam="1">  1       -2 0.99626671E+00 0.14934277E+02</pdfrwt>
<totfact>-0.24153640E-13</totfact>
</mgrwt>
</event>
<event>
 4    1 -0.5245809E-019  0.1495662E+02  0.7818608E-02  0.1869395E+00
          2   -1    0    0  501    0  0.00000000000E+00  0.00000000000E+00  0.11950219495E+03  0.11950219498E+03  0.25500000000E-02 0. -1.
         -2   -1    0    0    0  501 -0.00000000000E+00 -0.00000000000E+00 -0.46798032459E+00  0.46798727195E+00  0.25500000000E-02 0.  1.
         31    1    1    2    0    0 -0.66328102413E+00 -0.12298584449E+00  0.58671979757E+02  0.59146556975E+02  0.74470750000E+01 0. -1.
        -31    1    1    2    0    0  0.66328102413E+00  0.12298584449E+00  0.60362234873E+02  0.60823625280E+02  0.74470750000E+01 0.  1.
<mgrwt>
<rscale>  0 0.14956617E+02</rscale>
<asrwt>0</asrwt>
<pdfrwt beam="1">  1        2 0.99199741E+00 0.14956617E+02</pdfrwt>
<pdfrwt beam="2">  1       -2 0.99394091E+00 0.14956617E+02</pdfrwt>
<totfact>-0.14752935E-13</totfact>
</mgrwt>
</event>
<event>
 4    1 -0.5245809E-019  0.1493307E+02  0.7818608E-02  0.1870118E+00
         -2   -1    0    0    0  501 -0.00000000000E+00  0.00000000000E+00  0.11992051000E+03  0.11992051003E+03  0.25500000000E-02 0. -1.
          2   -1    0    0  501    0  0.00000000000E+00 -0.00000000000E+00 -0.46488066324E+00  0.46488765691E+00  0.25500000000E-02 0.  1.
         31    1    1    2    0    0 -0.72024476870E-01  0.53339405456E+00  0.59912710964E+02  0.60376167134E+02  0.74470750000E+01 0.  1.
        -31    1    1    2    0    0  0.72024476870E-01 -0.53339405456E+00  0.59542918372E+02  0.60009230548E+02  0.74470750000E+01 0. -1.
<mgrwt>
<rscale>  0 0.14933071E+02</rscale>
<asrwt>0</asrwt>
<pdfrwt beam="2">  1        2 0.98739651E+00 0.14933071E+02</pdfrwt>
<pdfrwt beam="1">  1       -2 0.99543070E+00 0.14933071E+02</pdfrwt>
<totfact>-0.23769464E-13</totfact>
</mgrwt>
</event>
<event>
 4    1 -0.5245809E-019  0.1492875E+02  0.7818608E-02  0.1870250E+00
         -2   -1    0    0    0  501 -0.00000000000E+00  0.00000000000E+00  0.11994468629E+03  0.11994468632E+03  0.25500000000E-02 0.  1.
          2   -1    0    0  501    0  0.00000000000E+00 -0.00000000000E+00 -0.46451828092E+00  0.46452528005E+00  0.25500000000E-02 0. -1.
         31    1    1    2    0    0  0.49017855571E+00 -0.13308891310E+00  0.59716208190E+02  0.60180914203E+02  0.74470750000E+01 0.  1.
        -31    1    1    2    0    0 -0.49017855571E+00  0.13308891310E+00  0.59763959821E+02  0.60228297396E+02  0.74470750000E+01 0.  1.
<mgrwt>
<rscale>  0 0.14928754E+02</rscale>
<asrwt>0</asrwt>
<pdfrwt beam="2">  1        2 0.98663056E+00 0.14928754E+02</pdfrwt>
<pdfrwt beam="1">  1       -2 0.99562761E+00 0.14928754E+02</pdfrwt>
<totfact>-0.26160054E-13</totfact>
</mgrwt>
</event>
<event>
 4    1 -0.5245809E-019  0.1496045E+02  0.7818608E-02  0.1869278E+00
          2   -1    0    0  501    0  0.00000000000E+00  0.00000000000E+00  0.11910212716E+03  0.11910212719E+03  0.25500000000E-02 0. -1.
         -2   -1    0    0    0  501 -0.00000000000E+00 -0.00000000000E+00 -0.46979303653E+00  0.46979995708E+00  0.25500000000E-02 0.  1.
         31    1    1    2    0    0  0.34660082875E+00  0.52417893381E+00  0.56789418065E+02  0.57279069702E+02  0.74470750000E+01 0.  1.
        -31    1    1    2    0    0 -0.34660082875E+00 -0.52417893381E+00  0.61842916061E+02  0.62292857445E+02  0.74470750000E+01 0.  1.
<mgrwt>
<rscale>  0 0.14960450E+02</rscale>
<asrwt>0</asrwt>
<pdfrwt beam="1">  1        2 0.98870435E+00 0.14960450E+02</pdfrwt>
<pdfrwt beam="2">  1       -2 0.99776266E+00 0.14960450E+02</pdfrwt>
<totfact>-0.13298626E-13</totfact>
</mgrwt>
</event>
<event>
 4    1 -0.5245809E-019  0.1494904E+02  0.7818608E-02  0.1869628E+00
         -2   -1    0    0    0  501 -0.00000000000E+00  0.00000000000E+00  0.11942144881E+03  0.11942144884E+03  0.25500000000E-02 0. -1.
          2   -1    0    0  501    0  0.00000000000E+00 -0.00000000000E+00 -0.46782215910E+00  0.46782910880E+00  0.25500000000E-02 0.  1.
         31    1    1    2    0    0 -0.88365123159E-01  0.66079792253E-01  0.64531984674E+02  0.64960358273E+02  0.74470750000E+01 0. -1.
        -31    1    1    2    0    0  0.88365123159E-01 -0.66079792253E-01  0.54421641981E+02  0.54928919678E+02  0.74470750000E+01 0.  1.
<mgrwt>
<rscale>  0 0.14949036E+02</rscale>
<asrwt>0</asrwt>
<pdfrwt beam="2">  1        2 0.99360367E+00 0.14949036E+02</pdfrwt>
<pdfrwt beam="1">  1       -2 0.99132843E+00 0.14949036E+02</pdfrwt>
<totfact>-0.62492663E-14</totfact>
</mgrwt>
</event>
<event>
 4    1  0.5245809E-019  0.1490599E+02  0.7818608E-02  0.1870951E+00
          2   -1    0    0  501    0  0.00000000000E+00  0.00000000000E+00  0.12014244459E+03  0.12014244461E+03  0.25500000000E-02 0. -1.
         -2   -1    0    0    0  501 -0.00000000000E+00 -0.00000000000E+00 -0.46234024851E+00  0.46234728061E+00  0.25500000000E-02 0.  1.
         31    1    1    2    0    0  0.97351699284E-01 -0.65346653337E-01  0.57632523507E+02  0.58111792602E+02  0.74470750000E+01 0.  1.
        -31    1    1    2    0    0 -0.97351699284E-01  0.65346653337E-01  0.62047580829E+02  0.62492999291E+02  0.74470750000E+01 0. -1.
<mgrwt>
<rscale>  0 0.14905987E+02</rscale>
<asrwt>0</asrwt>
<pdfrwt beam="1">  1        2 0.99724480E+00 0.14905987E+02</pdfrwt>
<pdfrwt beam="2">  1       -2 0.98202849E+00 0.14905987E+02</pdfrwt>
<totfact> 0.67951691E-13</totfact>
</mgrwt>
</event>
<event>
 4    1 -0.5245809E-019  0.1495754E+02  0.7818608E-02  0.1869367E+00
          2   -1    0    0  501    0  0.00000000000E+00  0.00000000000E+00  0.11983402389E+03  0.11983402392E+03  0.25500000000E-02 0.  1.
         -2   -1    0    0    0  501 -0.00000000000E+00 -0.00000000000E+00 -0.46674219138E+00  0.46674915717E+00  0.25500000000E-02 0. -1.
         31    1    1    2    0    0 -0.49375482985E+00  0.44876085301E+00  0.61027281191E+02  0.61483600706E+02  0.74470750000E+01 0.  1.
        -31    1    1    2    0    0  0.49375482985E+00 -0.44876085301E+00  0.58340000507E+02  0.58817172368E+02  0.74470750000E+01 0. -1.
<mgrwt>
<rscale>  0 0.14957542E+02</rscale>
<asrwt>0</asrwt>
<pdfrwt beam="1">  1        2 0.99473096E+00 0.14957542E+02</pdfrwt>
<pdfrwt beam="2">  1       -2 0.99133219E+00 0.14957542E+02</pdfrwt>
<totfact>-0.56972628E-14</totfact>
</mgrwt>
</event>
<event>
 4    1  0.5245809E-019  0.1490690E+02  0.7818608E-02  0.1870923E+00
          2   -1    0    0  501    0  0.00000000000E+00  0.00000000000E+00  0.12020622460E+03  0.12020622462E+03  0.25500000000E-02 0.  1.
         -2   -1    0    0    0  501 -0.00000000000E+00 -0.00000000000E+00 -0.46215122736E+00  0.46215826234E+00  0.25500000000E-02 0. -1.
         31    1    1    2    0    0 -0.17146436232E+00 -0.24640804417E+00  0.59309036976E+02  0.59775504265E+02  0.74470750000E+01 0. -1.
        -31    1    1    2    0    0  0.17146436232E+00  0.24640804417E+00  0.60435036393E+02  0.60892878622E+02  0.74470750000E+01 0. -1.
<mgrwt>
<rscale>  0 0.14906895E+02</rscale>
<asrwt>0</asrwt>
<pdfrwt beam="1">  1        2 0.99777062E+00 0.14906895E+02</pdfrwt>
<pdfrwt beam="2">  1       -2 0.98163054E+00 0.14906895E+02</pdfrwt>
<totfact> 0.62974586E-13</totfact>
</mgrwt>
</event>
<event>
 4    1 -0.5245809E-019  0.1493180E+02  0.7818608E-02  0.1870157E+00
          2   -1    0    0  501    0  0.00000000000E+00  0.00000000000E+00  0.11945831450E+03  0.11945831453E+03  0.25500000000E-02 0.  1.
         -2   -1    0    0    0  501 -0.00000000000E+00 -0.00000000000E+00 -0.46660013866E+00  0.46660710657E+00  0.25500000000E-02 0. -1.
         31    1    1    2    0    0 -0.47294581762E+00 -0.10856797645E-01  0.61412746262E+02  0.61864433442E+02  0.74470750000E+01 0. -1.
        -31    1    1    2    0    0  0.47294581762E+00  0.10856797645E-01  0.57578968101E+02  0.58060488193E+02  0.74470750000E+01 0.  1.
<mgrwt>
<rscale>  0 0.14931803E+02</rscale>
<asrwt>0</asrwt>
<pdfrwt beam="1">  1        2 0.99162316E+00 0.14931803E+02</pdfrwt>
<pdfrwt beam="2">  1       -2 0.99101956E+00 0.14931803E+02</pdfrwt>
<totfact>-0.55631375E-14</totfact>
</mgrwt>
</event>
<event>
 4    1  0.5245809E-019  0.1496643E+02  0.7818608E-02  0.1869095E+00
         -2   -1    0    0    0  501 -0.00000000000E+00  0.00000000000E+00  0.11899578966E+03  0.11899578969E+03  0.25500000000E-02 0. -1.
          2   -1    0    0  501    0  0.00000000000E+00 -0.00000000000E+00 -0.47058874538E+00  0.47059565423E+00  0.25500000000E-02 0.  1.
         31    1    1    2    0    0 -0.50212862522E+00 -0.32858757447E+00  0.55881040882E+02  0.56378273821E+02  0.74470750000E+01 0.  1.
        -31    1    1    2    0    0  0.50212862522E+00  0.32858757447E+00  0.62644160031E+02  0.63088111519E+02  0.74470750000E+01 0. -1.
<mgrwt>
<rscale>  0 0.14966428E+02</rscale>
<asrwt>0</asrwt>
<pdfrwt beam="2">  1        2 0.99944242E+00 0.14966428E+02</pdfrwt>
<pdfrwt beam="1">  1       -2 0.98783166E+00 0.14966428E+02</pdfrwt>
<totfact> 0.29841525E-14</totfact>
</mgrwt>
</event>
<event>
 4    1  0.5245809E-019  0.1490848E+02  0.7818608E-02  0.1870874E+00
         -2   -1    0    0    0  501 -0.00000000000E+00  0.00000000000E+00  0.11838761900E+03  0.11838761902E+03  0.25500000000E-02 0.  1.
          2   -1    0    0  501    0  0.00000000000E+00 -0.00000000000E+00 -0.46935047589E+00  0.46935740296E+00  0.25500000000E-02 0. -1.
         31    1    1    2    0    0 -0.31919172996E+00 -0.99642548442E-02  0.59510900345E+02  0.59975896563E+02  0.74470750000E+01 0.  1.
        -31    1    1    2    0    0  0.31919172996E+00  0.99642548442E-02  0.58407368176E+02  0.58881079864E+02  0.74470750000E+01 0.  1.
<mgrwt>
<rscale>  0 0.14908481E+02</rscale>
<asrwt>0</asrwt>
<pdfrwt beam="2">  1        2 0.99680282E+00 0.14908481E+02</pdfrwt>
<pdfrwt beam="1">  1       -2 0.98279264E+00 0.14908481E+02</pdfrwt>
<totfact> 0.64158815E-13</totfact>
</mgrwt>
</event>
<event>
 4    1  0.5245809E-019  0.1493929E+02  0.7818608E-02  0.1869927E+00
         -2   -1    0    0    0  501 -0.00000000000E+00  0.00000000000E+00  0.11870973872E+03  0.11870973875E+03  0.25500000000E-02 0. -1.
          2   -1    0    0  501    0  0.00000000000E+00 -0.00000000000E+00 -0.47001356199E+00  0.47002047930E+00  0.25500000000E-02 0.  1.
         31    1    1    2    0    0 -0.27703062607E+00  0.41829726491E+00  0.61445116848E+02  0.61896793366E+02  0.74470750000E+01 0. -1.
        -31    1    1    2    0    0  0.27703062607E+00 -0.41829726491E+00  0.56794608315E+02  0.57282965865E+02  0.74470750000E+01 0.  1.
<mgrwt>
<rscale>  0 0.14939291E+02</rscale>
<asrwt>0</asrwt>
<pdfrwt beam="2">  1        2 0.99821620E+00 0.14939291E+02</pdfrwt>
<pdfrwt beam="1">  1       -2 0.98546164E+00 0.14939291E+02</pdfrwt>
<totfact> 0.21245875E-13</totfact>
</mgrwt>
</event>
<event>
 4    1 -0.5245809E-019  0.1491045E+02  0.7818608E-02  0.1870813E+00
         -2   -1    0    0    0  501 -0.00000000000E+00  0.00000000000E+00  0.11965289487E+03  0.11965289490E+03  0.25500000000E-02 0.  1.
          2   -1    0    0  501    0  0.00000000000E+00 -0.00000000000E+00 -0.46450999594E+00  0.46451699520E+00  0.25500000000E-02 0. -1.
         31    1    1    2    0    0 -0.43798846771E-01 -0.46255172112E-01  0.56833892882E+02  0.57319755443E+02  0.74470750000E+01 0. -1.
        -31    1    1    2    0    0  0.43798846771E-01  0.46255172112E-01  0.62354491996E+02  0.62797656453E+02  0.74470750000E+01 0.  1.
<mgrwt>
<rscale>  0 0.14910451E+02</rscale>
<asrwt>0</asrwt>
<pdfrwt beam="2">  1        2 0.98660375E+00 0.14910451E+02</pdfrwt>
<pdfrwt beam="1">  1       -2 0.99321480E+00 0.14910451E+02</pdfrwt>
<totfact>-0.24346563E-13</totfact>
</mgrwt>
</event>
<event>
 4    1  0.5245809E-019  0.1491853E+02  0.7818608E-02  0.1870565E+00
         -2   -1    0    0    0  501 -0.00000000000E+00  0.00000000000E+00  0.11869112374E+03  0.11869112377E+03  0.25500000000E-02 0. -1.
          2   -1    0    0  501    0  0.00000000000E+00 -0.00000000000E+00 -0.46878163848E+00  0.46878857396E+00  0.25500000000E-02 0.  1.
         31    1    1    2    0    0 -0.95076044575E-01  0.37583903693E+00  0.57695493034E+02  0.58175416947E+02  0.74470750000E+01 0.  1.
        -31    1    1    2    0    0  0.95076044575E-01 -0.37583903693E+00  0.60526849066E+02  0.60984495394E+02  0.74470750000E+01 0. -1.
<mgrwt>
<rscale>  0 0.14918530E+02</rscale>
<asrwt>0</asrwt>
<pdfrwt beam="2">  1        2 0.99560955E+00 0.14918530E+02</pdfrwt>
<pdfrwt beam="1">  1       -2 0.98529753E+00 0.14918530E+02</pdfrwt>
<totfact> 0.41497403E-13</totfact>
</mgrwt>
</event>
<event>
 4    1 -0.5245809E-019  0.1494631E+02  0.7818608E-02  0.1869711E+00
         -2   -1    0    0    0  501 -0.00000000000E+00  0.00000000000E+00  0.12002592474E+03  0.12002592477E+03  0.25500000000E-02 0.  1.
          2   -1    0    0  501    0  0.00000000000E+00 -0.00000000000E+00 -0.46529619131E+00  0.46530317874E+00  0.25500000000E-02 0. -1.
         31    1    1    2    0    0 -0.38836129635E-01 -0.46477708813E-01  0.54775402963E+02  0.55279357488E+02  0.74470750000E+01 0. -1.
        -31    1    1    2    0    0  0.38836129635E-01  0.46477708813E-01  0.64785225586E+02  0.65211870459E+02  0.74470750000E+01 0.  1.
<mgrwt>
<rscale>  0 0.14946308E+02</rscale>
<asrwt>0</asrwt>
<pdfrwt beam="2">  1        2 0.98827901E+00 0.14946308E+02</pdfrwt>
<pdfrwt beam="1">  1       -2 0.99630578E+00 0.14946308E+02</pdfrwt>
<totfact>-0.19486591E-13</totfact>
</mgrwt>
</event>
<event>
 4    1 -0.5245809E-019  0.1495532E+02  0.7818608E-02  0.1869435E+00
         -2   -1    0    0    0  501 -0.00000000000E+00  0.00000000000E+00  0.11997166195E+03  0.11997166198E+03  0.25500000000E-02 0.  1.
          2   -1    0    0  501    0  0.00000000000E+00 -0.00000000000E+00 -0.46606808243E+00  0.46607505829E+00  0.25500000000E-02 0. -1.
         31    1    1    2    0    0  0.60390758798E+00 -0.13948678777E+00  0.57587449858E+02  0.58070280421E+02  0.74470750000E+01 0.  1.
        -31    1    1    2    0    0 -0.60390758798E+00  0.13948678777E+00  0.61918144011E+02  0.62367456617E+02  0.74470750000E+01 0.  1.
<mgrwt>
<rscale>  0 0.14955318E+02</rscale>
<asrwt>0</asrwt>
<pdfrwt beam="2">  1        2 0.98991039E+00 0.14955318E+02</pdfrwt>
<pdfrwt beam="1">  1       -2 0.99586348E+00 0.14955318E+02</pdfrwt>
<totfact>-0.17137718E-13</totfact>
</mgrwt>
</event>
<event>
 4    1  0.5245809E-019  0.1490908E+02  0.7818608E-02  0.1870856E+00
         -2   -1    0    0    0  501 -0.00000000000E+00  0.00000000000E+00  0.11893129525E+03  0.11893129528E+03  0.25500000000E-02 0.  1.
          2   -1    0    0  501    0  0.00000000000E+00 -0.00000000000E+00 -0.46724243094E+00  0.46724938927E+00  0.25500000000E-02 0. -1.
         31    1    1    2    0    0  0.21246474528E-01 -0.66096228459E-01  0.56619525255E+02  0.57107218338E+02  0.74470750000E+01 0. -1.
        -31    1    1    2    0    0 -0.21246474528E-01  0.66096228459E-01  0.61844527565E+02  0.62291326329E+02  0.74470750000E+01 0.  1.
<mgrwt>
<rscale>  0 0.14909080E+02</rscale>
<asrwt>0</asrwt>
<pdfrwt beam="2">  1        2 0.99236127E+00 0.14909080E+02</pdfrwt>
<pdfrwt beam="1">  1       -2 0.98727071E+00 0.14909080E+02</pdfrwt>
<totfact> 0.27020836E-13</totfact>
</mgrwt>
</event>
<event>
 4    1  0.5245809E-019  0.1489749E+02  0.7818608E-02  0.1871213E+00
         -2   -1    0    0    0  501 -0.00000000000E+00  0.00000000000E+00  0.11827359858E+03  0.11827359861E+03  0.25500000000E-02 0.  1.
          2   -1    0    0  501    0  0.00000000000E+00 -0.00000000000E+00 -0.46911046443E+00  0.46911739505E+00  0.25500000000E-02 0. -1.
         31    1    1    2    0    0 -0.14480134797E+00 -0.37570847639E-01  0.59300044184E+02  0.59766014969E+02  0.74470750000E+01 0. -1.
        -31    1    1    2    0    0  0.14480134797E+00  0.37570847639E-01  0.58504443933E+02  0.58976701035E+02  0.74470750000E+01 0. -1.
<mgrwt>
<rscale>  0 0.14897489E+02</rscale>
<asrwt>0</asrwt>
<pdfrwt beam="2">  1        2 0.99629131E+00 0.14897489E+02</pdfrwt>
<pdfrwt beam="1">  1       -2 0.98184786E+00 0.14897489E+02</pdfrwt>
<totfact> 0.85545445E-13</totfact>
</mgrwt>
</event>
<event>
 4    1  0.5245809E-019  0.1491364E+02  0.7818608E-02  0.1870715E+00
          2   -1    0    0  501    0  0.00000000000E+00  0.00000000000E+00  0.12014789742E+03  0.12014789744E+03  0.25500000000E-02 0.  1.
         -2   -1    0    0    0  501 -0.00000000000E+00 -0.00000000000E+00 -0.46279419737E+00  0.46280122258E+00  0.25500000000E-02 0. -1.
         31    1    1    2    0    0 -0.24266885646E-01  0.36671719040E+00  0.59026634086E+02  0.59495693356E+02  0.74470750000E+01 0. -1.
        -31    1    1    2    0    0  0.24266885646E-01 -0.36671719040E+00  0.60658469133E+02  0.61115005309E+02  0.74470750000E+01 0.  1.
<mgrwt>
<rscale>  0 0.14913641E+02</rscale>
<asrwt>0</asrwt>
<pdfrwt beam="1">  1        2 0.99729364E+00 0.14913641E+02</pdfrwt>
<pdfrwt beam="2">  1       -2 0.98298915E+00 0.14913641E+02</pdfrwt>
<totfact> 0.54890686E-13</totfact>
</mgrwt>
</event>
<event>
 4    1  0.5245809E-019  0.1492119E+02  0.7818608E-02  0.1870483E+00
         -2   -1    0    0    0  501 -0.00000000000E+00  0.00000000000E+00  0.11861257153E+03  0.11861257155E+03  0.25500000000E-02 0.  1.
          2   -1    0    0  501    0  0.00000000000E+00 -0.00000000000E+00 -0.46925915472E+00  0.46926608314E+00  0.25500000000E-02 0. -1.
         31    1    1    2    0    0  0.17514148199E+00  0.31202750924E-01  0.55782330178E+02  0.56277517130E+02  0.74470750000E+01 0. -1.
        -31    1    1    2    0    0 -0.17514148199E+00 -0.31202750924E-01  0.62360982192E+02  0.62804320506E+02  0.74470750000E+01 0.  1.
<mgrwt>
<rscale>  0 0.14921186E+02</rscale>
<asrwt>0</asrwt>
<pdfrwt beam="2">  1        2 0.99661710E+00 0.14921186E+02</pdfrwt>
<pdfrwt beam="1">  1       -2 0.98465195E+00 0.14921186E+02</pdfrwt>
<totfact> 0.42624742E-13</totfact>
</mgrwt>
</event>
<event>
 4    1 -0.5245809E-019  0.1489483E+02  0.7818608E-02  0.1871295E+00
          2   -1    0    0  501    0  0.00000000000E+00  0.00000000000E+00  0.11810214267E+03  0.11810214270E+03  0.25500000000E-02 0. -1.
         -2   -1    0    0    0  501 -0.00000000000E+00 -0.00000000000E+00 -0.46962386145E+00  0.46963078449E+00  0.25500000000E-02 0.  1.
         31    1    1    2    0    0 -0.64379445655E-01  0.21852578379E-01  0.58984763875E+02  0.59453056420E+02  0.74470750000E+01 0. -1.
        -31    1    1    2    0    0  0.64379445655E-01 -0.21852578379E-01  0.58647754938E+02  0.59118717066E+02  0.74470750000E+01 0. -1.
<mgrwt>
<rscale>  0 0.14894831E+02</rscale>
<asrwt>0</asrwt>
<pdfrwt beam="1">  1        2 0.98043438E+00 0.14894831E+02</pdfrwt>
<pdfrwt beam="2">  1       -2 0.99737161E+00 0.14894831E+02</pdfrwt>
<totfact>-0.54535102E-13</totfact>
</mgrwt>
</event>
<event>
 4    1 -0.5245809E-019  0.1490460E+02  0.7818608E-02  0.1870994E+00
          2   -1    0    0  501    0  0.00000000000E+00  0.00000000000E+00  0.11839806172E+03  0.11839806174E+03  0.25500000000E-02 0. -1.
         -2   -1    0    0    0  501 -0.00000000000E+00 -0.00000000000E+00 -0.46906480307E+00  0.46907173437E+00  0.25500000000E-02 0.  1.
         31    1    1    2    0    0 -0.17191135767E+00  0.18828073063E+00  0.59868475149E+02  0.60330408965E+02  0.74470750000E+01 0.  1.
        -31    1    1    2    0    0  0.17191135767E+00 -0.18828073063E+00  0.58060521763E+02  0.58536724512E+02  0.74470750000E+01 0. -1.
<mgrwt>
<rscale>  0 0.14904600E+02</rscale>
<asrwt>0</asrwt>
<pdfrwt beam="1">  1        2 0.98287663E+00 0.14904600E+02</pdfrwt>
<pdfrwt beam="2">  1       -2 0.99619886E+00 0.14904600E+02</pdfrwt>
<totfact>-0.45336733E-13</totfact>
</mgrwt>
</event>
<event>
 4    1  0.5245809E-019  0.1493379E+02  0.7818608E-02  0.1870096E+00
         -2   -1    0    0    0  501 -0.00000000000E+00  0.00000000000E+00  0.11866347208E+03  0.11866347210E+03  0.25500000000E-02 0. -1.
          2   -1    0    0  501    0  0.00000000000E+00 -0.00000000000E+00 -0.46985053652E+00  0.46985745622E+00  0.25500000000E-02 0.  1.
         31    1    1    2    0    0  0.19291833846E+00 -0.34793038566E+00  0.62052886394E+02  0.62499423268E+02  0.74470750000E+01 0. -1.
        -31    1    1    2    0    0 -0.19291833846E+00  0.34793038566E+00  0.56140735146E+02  0.56633906292E+02  0.74470750000E+01 0.  1.
<mgrwt>
<rscale>  0 0.14933789E+02</rscale>
<asrwt>0</asrwt>
<pdfrwt beam="2">  1        2 0.99786980E+00 0.14933789E+02</pdfrwt>
<pdfrwt beam="1">  1       -2 0.98507772E+00 0.14933789E+02</pdfrwt>
<totfact> 0.27345289E-13</totfact>
</mgrwt>
</event>
<event>
 4    1  0.5245809E-019  0.1493514E+02  0.7818608E-02  0.1870054E+00
          2   -1    0    0  501    0  0.00000000000E+00  0.00000000000E+00  0.11990371515E+03  0.11990371518E+03  0.25500000000E-02 0.  1.
         -2   -1    0    0    0  501 -0.00000000000E+00 -0.00000000000E+00 -0.46507441081E+00  0.46508140158E+00  0.25500000000E-02 0. -1.
         31    1    1    2    0    0  0.49577567099E+00  0.23294323552E+00  0.59116750276E+02  0.59586484586E+02  0.74470750000E+01 0.  1.
        -31    1    1    2    0    0 -0.49577567099E+00 -0.23294323552E+00  0.60321890461E+02  0.60782311991E+02  0.74470750000E+01 0.  1.
<mgrwt>
<rscale>  0 0.14935136E+02</rscale>
<asrwt>0</asrwt>
<pdfrwt beam="1">  1        2 0.99529343E+00 0.14935136E+02</pdfrwt>
<pdfrwt beam="2">  1       -2 0.98780589E+00 0.14935136E+02</pdfrwt>
<totfact> 0.16313830E-13</totfact>
</mgrwt>
</event>
<event>
 4    1 -0.5245809E-019  0.1494836E+02  0.7818608E-02  0.1869649E+00
          2   -1    0    0  501    0  0.00000000000E+00  0.00000000000E+00  0.11936520820E+03  0.11936520823E+03  0.25500000000E-02 0.  1.
         -2   -1    0    0    0  501 -0.00000000000E+00 -0.00000000000E+00 -0.46800001646E+00  0.46800696352E+00  0.25500000000E-02 0. -1.
         31    1    1    2    0    0 -0.35917372657E-01 -0.50229614836E+00  0.62561846098E+02  0.63005532334E+02  0.74470750000E+01 0.  1.
        -31    1    1    2    0    0  0.35917372657E-01  0.50229614836E+00  0.56335362090E+02  0.56827682861E+02  0.74470750000E+01 0. -1.
<mgrwt>
<rscale>  0 0.14948356E+02</rscale>
<asrwt>0</asrwt>
<pdfrwt beam="1">  1        2 0.99086487E+00 0.14948356E+02</pdfrwt>
<pdfrwt beam="2">  1       -2 0.99397811E+00 0.14948356E+02</pdfrwt>
<totfact>-0.16152810E-13</totfact>
</mgrwt>
</event>
<event>
 4    1 -0.5245809E-019  0.1499884E+02  0.7818608E-02  0.1868104E+00
          2   -1    0    0  501    0  0.00000000000E+00  0.00000000000E+00  0.11956031544E+03  0.11956031547E+03  0.25500000000E-02 0.  1.
         -2   -1    0    0    0  501 -0.00000000000E+00 -0.00000000000E+00 -0.47039768901E+00  0.47040460067E+00  0.25500000000E-02 0. -1.
         31    1    1    2    0    0 -0.68552432498E+00  0.68292190373E-01  0.63984664884E+02  0.64420267570E+02  0.74470750000E+01 0.  1.
        -31    1    1    2    0    0  0.68552432498E+00 -0.68292190373E-01  0.55105252869E+02  0.55610452500E+02  0.74470750000E+01 0. -1.
<mgrwt>
<rscale>  0 0.14998842E+02</rscale>
<asrwt>0</asrwt>
<pdfrwt beam="1">  1        2 0.99249797E+00 0.14998842E+02</pdfrwt>
<pdfrwt beam="2">  1       -2 0.99905683E+00 0.14998842E+02</pdfrwt>
<totfact>-0.45003052E-14</totfact>
</mgrwt>
</event>
<event>
 4    1 -0.5245809E-019  0.1496918E+02  0.7818608E-02  0.1869010E+00
          2   -1    0    0  501    0  0.00000000000E+00  0.00000000000E+00  0.11995026409E+03  0.11995026411E+03  0.25500000000E-02 0.  1.
         -2   -1    0    0    0  501 -0.00000000000E+00 -0.00000000000E+00 -0.46701603134E+00  0.46702299305E+00  0.25500000000E-02 0. -1.
         31    1    1    2    0    0  0.11462683839E-01  0.74458453898E+00  0.59136771928E+02  0.59608483101E+02  0.74470750000E+01 0. -1.
        -31    1    1    2    0    0 -0.11462683839E-01 -0.74458453898E+00  0.60346476127E+02  0.60808804005E+02  0.74470750000E+01 0. -1.
<mgrwt>
<rscale>  0 0.14969184E+02</rscale>
<asrwt>0</asrwt>
<pdfrwt beam="1">  1        2 0.99569438E+00 0.14969184E+02</pdfrwt>
<pdfrwt beam="2">  1       -2 0.99191527E+00 0.14969184E+02</pdfrwt>
<totfact>-0.70247328E-14</totfact>
</mgrwt>
</event>
<event>
 4    1 -0.5245809E-019  0.1493122E+02  0.7818608E-02  0.1870175E+00
          2   -1    0    0  501    0  0.00000000000E+00  0.00000000000E+00  0.11856068042E+03  0.11856068045E+03  0.25500000000E-02 0. -1.
         -2   -1    0    0    0  501 -0.00000000000E+00 -0.00000000000E+00 -0.47009621985E+00  0.47010313593E+00  0.25500000000E-02 0.  1.
         31    1    1    2    0    0 -0.55178728525E-01  0.10116381576E+00  0.63134640901E+02  0.63572439678E+02  0.74470750000E+01 0. -1.
        -31    1    1    2    0    0  0.55178728525E-01 -0.10116381576E+00  0.54955943297E+02  0.55458343903E+02  0.74470750000E+01 0.  1.
<mgrwt>
<rscale>  0 0.14931221E+02</rscale>
<asrwt>0</asrwt>
<pdfrwt beam="1">  1        2 0.98422980E+00 0.14931221E+02</pdfrwt>
<pdfrwt beam="2">  1       -2 0.99838610E+00 0.14931221E+02</pdfrwt>
<totfact>-0.19592260E-13</totfact>
</mgrwt>
</event>
<event>
 4    1  0.5245809E-019  0.1493111E+02  0.7818608E-02  0.1870178E+00
          2   -1    0    0  501    0  0.00000000000E+00  0.00000000000E+00  0.12000209145E+03  0.12000209147E+03  0.25500000000E-02 0. -1.
         -2   -1    0    0    0  501 -0.00000000000E+00 -0.00000000000E+00 -0.46444263573E+00  0.46444963601E+00  0.25500000000E-02 0.  1.
         31    1    1    2    0    0  0.21429144304E+00  0.47892912840E+00  0.59906442327E+02  0.60369827333E+02  0.74470750000E+01 0. -1.
        -31    1    1    2    0    0 -0.21429144304E+00 -0.47892912840E+00  0.59631206485E+02  0.60096713777E+02  0.74470750000E+01 0. -1.
<mgrwt>
<rscale>  0 0.14931110E+02</rscale>
<asrwt>0</asrwt>
<pdfrwt beam="1">  1        2 0.99610165E+00 0.14931110E+02</pdfrwt>
<pdfrwt beam="2">  1       -2 0.98647234E+00 0.14931110E+02</pdfrwt>
<totfact> 0.26334973E-13</totfact>
</mgrwt>
</event>
<event>
 4    1 -0.5245809E-019  0.1494089E+02  0.7818608E-02  0.1869878E+00
          2   -1    0    0  501    0  0.00000000000E+00  0.00000000000E+00  0.11903044481E+03  0.11903044484E+03  0.25500000000E-02 0.  1.
         -2   -1    0    0    0  501 -0.00000000000E+00 -0.00000000000E+00 -0.46884755575E+00  0.46885449026E+00  0.25500000000E-02 0. -1.
         31    1    1    2    0    0 -0.12362506808E+00 -0.52906717638E+00  0.61129524323E+02  0.61583868547E+02  0.74470750000E+01 0. -1.
        -31    1    1    2    0    0  0.12362506808E+00  0.52906717638E+00  0.57432072933E+02  0.57915430782E+02  0.74470750000E+01 0. -1.
<mgrwt>
<rscale>  0 0.14940890E+02</rscale>
<asrwt>0</asrwt>
<pdfrwt beam="1">  1        2 0.98810382E+00 0.14940890E+02</pdfrwt>
<pdfrwt beam="2">  1       -2 0.99576016E+00 0.14940890E+02</pdfrwt>
<totfact>-0.21154876E-13</totfact>
</mgrwt>
</event>
<event>
 4    1  0.5245809E-019  0.1490629E+02  0.7818608E-02  0.1870942E+00
         -2   -1    0    0    0  501 -0.00000000000E+00  0.00000000000E+00  0.11836154403E+03  0.11836154406E+03  0.25500000000E-02 0.  1.
          2   -1    0    0  501    0  0.00000000000E+00 -0.00000000000E+00 -0.46931583093E+00  0.46932275851E+00  0.25500000000E-02 0. -1.
         31    1    1    2    0    0 -0.52960611371E-01  0.25785290604E+00  0.60105207955E+02  0.60565371643E+02  0.74470750000E+01 0.  1.
        -31    1    1    2    0    0  0.52960611371E-01 -0.25785290604E+00  0.57787020244E+02  0.58265495172E+02  0.74470750000E+01 0. -1.
<mgrwt>
<rscale>  0 0.14906289E+02</rscale>
<asrwt>0</asrwt>
<pdfrwt beam="2">  1        2 0.99672867E+00 0.14906289E+02</pdfrwt>
<pdfrwt beam="1">  1       -2 0.98257675E+00 0.14906289E+02</pdfrwt>
<totfact> 0.68184429E-13</totfact>
</mgrwt>
</event>
<event>
 4    1 -0.5245809E-019  0.1495105E+02  0.7818608E-02  0.1869566E+00
          2   -1    0    0  501    0  0.00000000000E+00  0.00000000000E+00  0.11959974798E+03  0.11959974801E+03  0.25500000000E-02 0. -1.
         -2   -1    0    0    0  501 -0.00000000000E+00 -0.00000000000E+00 -0.46725054024E+00  0.46725749844E+00  0.25500000000E-02 0.  1.
         31    1    1    2    0    0  0.54355458849E-01 -0.37533439070E+00  0.55311433004E+02  0.55811803209E+02  0.74470750000E+01 0.  1.
        -31    1    1    2    0    0 -0.54355458849E-01  0.37533439070E+00  0.63821064437E+02  0.64255202298E+02  0.74470750000E+01 0. -1.
<mgrwt>
<rscale>  0 0.14951049E+02</rscale>
<asrwt>0</asrwt>
<pdfrwt beam="1">  1        2 0.99279801E+00 0.14951049E+02</pdfrwt>
<pdfrwt beam="2">  1       -2 0.99240013E+00 0.14951049E+02</pdfrwt>
<totfact>-0.10794986E-13</totfact>
</mgrwt>
</event>
<event>
 4    1 -0.5245809E-019  0.1493450E+02  0.7818608E-02  0.1870074E+00
         -2   -1    0    0    0  501 -0.00000000000E+00  0.00000000000E+00  0.11981537052E+03  0.11981537055E+03  0.25500000000E-02 0. -1.
          2   -1    0    0  501    0  0.00000000000E+00 -0.00000000000E+00 -0.46537763458E+00  0.46538462079E+00  0.25500000000E-02 0.  1.
         31    1    1    2    0    0  0.16585088863E+00  0.50224746951E+00  0.58504259130E+02  0.58978699727E+02  0.74470750000E+01 0.  1.
        -31    1    1    2    0    0 -0.16585088863E+00 -0.50224746951E+00  0.60845733756E+02  0.61302055442E+02  0.74470750000E+01 0. -1.
<mgrwt>
<rscale>  0 0.14934499E+02</rscale>
<asrwt>0</asrwt>
<pdfrwt beam="2">  1        2 0.98844461E+00 0.14934499E+02</pdfrwt>
<pdfrwt beam="1">  1       -2 0.99456544E+00 0.14934499E+02</pdfrwt>
<totfact>-0.21147107E-13</totfact>
</mgrwt>
</event>
<event>
 4    1 -0.5245809E-019  0.1496675E+02  0.7818608E-02  0.1869085E+00
         -2   -1    0    0    0  501 -0.00000000000E+00  0.00000000000E+00  0.11938262318E+03  0.11938262320E+03  0.25500000000E-02 0.  1.
          2   -1    0    0  501    0  0.00000000000E+00 -0.00000000000E+00 -0.46908419266E+00  0.46909112367E+00  0.25500000000E-02 0. -1.
         31    1    1    2    0    0 -0.54684484489E+00  0.43819682091E-01  0.55525300733E+02  0.56025163159E+02  0.74470750000E+01 0.  1.
        -31    1    1    2    0    0  0.54684484489E+00 -0.43819682091E-01  0.63388238251E+02  0.63826551168E+02  0.74470750000E+01 0.  1.
<mgrwt>
<rscale>  0 0.14966752E+02</rscale>
<asrwt>0</asrwt>
<pdfrwt beam="2">  1        2 0.99627230E+00 0.14966752E+02</pdfrwt>
<pdfrwt beam="1">  1       -2 0.99101783E+00 0.14966752E+02</pdfrwt>
<totfact>-0.36078405E-14</totfact>
</mgrwt>
</event>
