<event>
 4    1 -0.5010510E-019  0.1494673E+02  0.7818608E-02  0.1869698E+00
         -2   -1    0    0    0  501 -0.00000000000E+00  0.00000000000E+00  0.11974226568E+03  0.11974226571E+03  0.25500000000E-02 0. -1.
          2   -1    0    0  501    0  0.00000000000E+00 -0.00000000000E+00 -0.46642474256E+00  0.46643171309E+00  0.25500000000E-02 0.  1.
         31    1    1    2    0    0  0.42992423898E+00 -0.11717094514E+00  0.56098444581E+02  0.56592340245E+02  0.74470750000E+01 0.  1.
        -31    1    1    2    0    0 -0.42992423898E+00  0.11717094514E+00  0.63177396356E+02  0.63616357175E+02  0.74470750000E+01 0.  1.
<mgrwt>
<rscale>  0 0.14946729E+02</rscale>
<asrwt>0</asrwt>
<pdfrwt beam="2">  1        2 0.99065763E+00 0.14946729E+02</pdfrwt>
<pdfrwt beam="1">  1       -2 0.99396962E+00 0.14946729E+02</pdfrwt>
<totfact>-0.16429489E-13</totfact>
</mgrwt>
</event>
<event>
 4    1 -0.5010510E-019  0.1497997E+02  0.7818608E-02  0.1868680E+00
         -2   -1    0    0    0  501 -0.00000000000E+00  0.00000000000E+00  0.11985836518E+03  0.11985836521E+03  0.25500000000E-02 0. -1.
          2   -1    0    0  501    0  0.00000000000E+00 -0.00000000000E+00 -0.46804791474E+00  0.46805486110E+00  0.25500000000E-02 0.  1.
         31    1    1    2    0    0  0.29108160904E+00 -0.68708701576E-01  0.53729978179E+02  0.54244436863E+02  0.74470750000E+01 0.  1.
        -31    1    1    2    0    0 -0.29108160904E+00  0.68708701576E-01  0.65660339090E+02  0.66081983209E+02  0.74470750000E+01 0. -1.
<mgrwt>
<rscale>  0 0.14979970E+02</rscale>
<asrwt>0</asrwt>
<pdfrwt beam="2">  1        2 0.99409542E+00 0.14979970E+02</pdfrwt>
<pdfrwt beam="1">  1       -2 0.99494303E+00 0.14979970E+02</pdfrwt>
<totfact>-0.12972045E-13</totfact>
</mgrwt>
</event>
<event>
 4    1 -0.5010510E-019  0.1490842E+02  0.7818608E-02  0.1870876E+00
         -2   -1    0    0    0  501 -0.00000000000E+00  0.00000000000E+00  0.12036722078E+03  0.12036722080E+03  0.25500000000E-02 0.  1.
          2   -1    0    0  501    0  0.00000000000E+00 -0.00000000000E+00 -0.46162780365E+00  0.46163484661E+00  0.25500000000E-02 0. -1.
         31    1    1    2    0    0 -0.99564047360E-01  0.22011836995E+00  0.61728302417E+02  0.62176366977E+02  0.74470750000E+01 0.  1.
        -31    1    1    2    0    0  0.99564047360E-01 -0.22011836995E+00  0.58177290556E+02  0.58652488673E+02  0.74470750000E+01 0. -1.
<mgrwt>
<rscale>  0 0.14908425E+02</rscale>
<asrwt>0</asrwt>
<pdfrwt beam="2">  1        2 0.98052806E+00 0.14908425E+02</pdfrwt>
<pdfrwt beam="1">  1       -2 0.99909752E+00 0.14908425E+02</pdfrwt>
<totfact>-0.21696361E-13</totfact>
</mgrwt>
</event>
<event>
 4    1 -0.5010510E-019  0.1499123E+02  0.7818608E-02  0.1868336E+00
          2   -1    0    0  501    0  0.00000000000E+00  0.00000000000E+00  0.11961137815E+03  0.11961137818E+03  0.25500000000E-02 0.  1.
         -2   -1    0    0    0  501 -0.00000000000E+00 -0.00000000000E+00 -0.46971993588E+00  0.46972685751E+00  0.25500000000E-02 0. -1.
         31    1    1    2    0    0  0.10929143752E-02 -0.84778218846E+00  0.60221778729E+02  0.60686409477E+02  0.74470750000E+01 0.  1.
        -31    1    1    2    0    0 -0.10929143752E-02  0.84778218846E+00  0.58919879489E+02  0.59394695561E+02  0.74470750000E+01 0. -1.
<mgrwt>
<rscale>  0 0.14991233E+02</rscale>
<asrwt>0</asrwt>
<pdfrwt beam="1">  1        2 0.99291459E+00 0.14991233E+02</pdfrwt>
<pdfrwt beam="2">  1       -2 0.99762470E+00 0.14991233E+02</pdfrwt>
<totfact>-0.96341785E-14</totfact>
</mgrwt>
</event>
<event>
 4    1  0.5010510E-019  0.1493031E+02  0.7818608E-02  0.1870203E+00
          2   -1    0    0  501    0  0.00000000000E+00  0.00000000000E+00  0.11996315861E+03  0.11996315863E+03  0.25500000000E-02 0. -1.
         -2   -1    0    0    0  501 -0.00000000000E+00 -0.00000000000E+00 -0.46454329883E+00  0.46455029759E+00  0.25500000000E-02 0.  1.
         31    1    1    2    0    0 -0.64661686037E-01 -0.39564012423E+00  0.62410671515E+02  0.62854686041E+02  0.74470750000E+01 0. -1.
        -31    1    1    2    0    0  0.64661686037E-01  0.39564012423E+00  0.57087943793E+02  0.57573022891E+02  0.74470750000E+01 0.  1.
<mgrwt>
<rscale>  0 0.14930305E+02</rscale>
<asrwt>0</asrwt>
<pdfrwt beam="1">  1        2 0.99578056E+00 0.14930305E+02</pdfrwt>
<pdfrwt beam="2">  1       -2 0.98668408E+00 0.14930305E+02</pdfrwt>
<totfact> 0.25453203E-13</totfact>
</mgrwt>
</event>
<event>
 4    1  0.5010510E-019  0.1493011E+02  0.7818608E-02  0.1870209E+00
         -2   -1    0    0    0  501 -0.00000000000E+00  0.00000000000E+00  0.11870263914E+03  0.11870263917E+03  0.25500000000E-02 0. -1.
          2   -1    0    0  501    0  0.00000000000E+00 -0.00000000000E+00 -0.46946424474E+00  0.46947117013E+00  0.25500000000E-02 0.  1.
         31    1    1    2    0    0  0.52922713147E-01  0.31442990694E+00  0.62373262726E+02  0.62817071693E+02  0.74470750000E+01 0. -1.
        -31    1    1    2    0    0 -0.52922713147E-01 -0.31442990694E+00  0.55859912172E+02  0.56355038647E+02  0.74470750000E+01 0. -1.
<mgrwt>
<rscale>  0 0.14930112E+02</rscale>
<asrwt>0</asrwt>
<pdfrwt beam="2">  1        2 0.99705394E+00 0.14930112E+02</pdfrwt>
<pdfrwt beam="1">  1       -2 0.98539839E+00 0.14930112E+02</pdfrwt>
<totfact> 0.31475910E-13</totfact>
</mgrwt>
</event>
<event>
 4    1 -0.5010510E-019  0.1497512E+02  0.7818608E-02  0.1868829E+00
          2   -1    0    0  501    0  0.00000000000E+00  0.00000000000E+00  0.11983937756E+03  0.11983937758E+03  0.25500000000E-02 0.  1.
         -2   -1    0    0    0  501 -0.00000000000E+00 -0.00000000000E+00 -0.46781888354E+00  0.46782583329E+00  0.25500000000E-02 0. -1.
         31    1    1    2    0    0 -0.43477160898E+00  0.69625042856E-01  0.54536971498E+02  0.55044836817E+02  0.74470750000E+01 0. -1.
        -31    1    1    2    0    0  0.43477160898E+00 -0.69625042856E-01  0.64834587176E+02  0.65262366601E+02  0.74470750000E+01 0.  1.
<mgrwt>
<rscale>  0 0.14975118E+02</rscale>
<asrwt>0</asrwt>
<pdfrwt beam="1">  1        2 0.99478413E+00 0.14975118E+02</pdfrwt>
<pdfrwt beam="2">  1       -2 0.99361027E+00 0.14975118E+02</pdfrwt>
<totfact>-0.11533984E-13</totfact>
</mgrwt>
</event>
<event>
 4    1 -0.5010510E-019  0.1491333E+02  0.7818608E-02  0.1870725E+00
         -2   -1    0    0    0  501 -0.00000000000E+00  0.00000000000E+00  0.11980351941E+03  0.11980351944E+03  0.25500000000E-02 0. -1.
          2   -1    0    0  501    0  0.00000000000E+00 -0.00000000000E+00 -0.46410491970E+00  0.46411192507E+00  0.25500000000E-02 0.  1.
         31    1    1    2    0    0 -0.34900314713E+00 -0.13586535761E+00  0.60083830301E+02  0.60544742566E+02  0.74470750000E+01 0.  1.
        -31    1    1    2    0    0  0.34900314713E+00  0.13586535761E+00  0.59255584193E+02  0.59722888801E+02  0.74470750000E+01 0.  1.
<mgrwt>
<rscale>  0 0.14913326E+02</rscale>
<asrwt>0</asrwt>
<pdfrwt beam="2">  1        2 0.98575151E+00 0.14913326E+02</pdfrwt>
<pdfrwt beam="1">  1       -2 0.99445692E+00 0.14913326E+02</pdfrwt>
<totfact>-0.30773172E-13</totfact>
</mgrwt>
</event>
<event>
 4    1 -0.5010510E-019  0.1491301E+02  0.7818608E-02  0.1870735E+00
          2   -1    0    0  501    0  0.00000000000E+00  0.00000000000E+00  0.11840779408E+03  0.11840779411E+03  0.25500000000E-02 0.  1.
         -2   -1    0    0    0  501 -0.00000000000E+00 -0.00000000000E+00 -0.46955545122E+00  0.46956237527E+00  0.25500000000E-02 0. -1.
         31    1    1    2    0    0 -0.29607651871E-01 -0.37348465001E+00  0.58873159025E+02  0.59343476028E+02  0.74470750000E+01 0.  1.
        -31    1    1    2    0    0  0.29607651871E-01  0.37348465001E+00  0.59065079608E+02  0.59533880459E+02  0.74470750000E+01 0.  1.
<mgrwt>
<rscale>  0 0.14913006E+02</rscale>
<asrwt>0</asrwt>
<pdfrwt beam="1">  1        2 0.98296116E+00 0.14913006E+02</pdfrwt>
<pdfrwt beam="2">  1       -2 0.99723709E+00 0.14913006E+02</pdfrwt>
<totfact>-0.36944211E-13</totfact>
</mgrwt>
</event>
<event>
 4    1 -0.5010510E-019  0.1492444E+02  0.7818608E-02  0.1870383E+00
         -2   -1    0    0    0  501 -0.00000000000E+00  0.00000000000E+00  0.11929837420E+03  0.11929837422E+03  0.25500000000E-02 0. -1.
          2   -1    0    0  501    0  0.00000000000E+00 -0.00000000000E+00 -0.46676532332E+00  0.46677228876E+00  0.25500000000E-02 0.  1.
         31    1    1    2    0    0 -0.47388533139E+00  0.27565367354E-01  0.59234627469E+02  0.59702808515E+02  0.74470750000E+01 0. -1.
        -31    1    1    2    0    0  0.47388533139E+00 -0.27565367354E-01  0.59596981405E+02  0.60062337999E+02  0.74470750000E+01 0. -1.
<mgrwt>
<rscale>  0 0.14924445E+02</rscale>
<asrwt>0</asrwt>
<pdfrwt beam="2">  1        2 0.99136386E+00 0.14924445E+02</pdfrwt>
<pdfrwt beam="1">  1       -2 0.99030203E+00 0.14924445E+02</pdfrwt>
<totfact>-0.10949170E-14</totfact>
</mgrwt>
</event>
<event>
 4    1 -0.5010510E-019  0.1497003E+02  0.7818608E-02  0.1868984E+00
         -2   -1    0    0    0  501 -0.00000000000E+00  0.00000000000E+00  0.11988491719E+03  0.11988491721E+03  0.25500000000E-02 0.  1.
          2   -1    0    0  501    0  0.00000000000E+00 -0.00000000000E+00 -0.46732331633E+00  0.46733027345E+00  0.25500000000E-02 0. -1.
         31    1    1    2    0    0 -0.80402417849E-01 -0.50084059792E+00  0.64179287204E+02  0.64611896257E+02  0.74470750000E+01 0.  1.
        -31    1    1    2    0    0  0.80402417849E-01  0.50084059792E+00  0.55238306667E+02  0.55740351231E+02  0.74470750000E+01 0. -1.
<mgrwt>
<rscale>  0 0.14970028E+02</rscale>
<asrwt>0</asrwt>
<pdfrwt beam="2">  1        2 0.99256329E+00 0.14970028E+02</pdfrwt>
<pdfrwt beam="1">  1       -2 0.99515659E+00 0.14970028E+02</pdfrwt>
<totfact>-0.14468338E-13</totfact>
</mgrwt>
</event>
<event>
 4    1  0.5010510E-019  0.1494816E+02  0.7818608E-02  0.1869654E+00
          2   -1    0    0  501    0  0.00000000000E+00  0.00000000000E+00  0.12023160797E+03  0.12023160800E+03  0.25500000000E-02 0.  1.
         -2   -1    0    0    0  501 -0.00000000000E+00 -0.00000000000E+00 -0.46461558184E+00  0.46462257951E+00  0.25500000000E-02 0. -1.
         31    1    1    2    0    0  0.11814555129E+00  0.59457317427E+00  0.61404830031E+02  0.61857736403E+02  0.74470750000E+01 0. -1.
        -31    1    1    2    0    0 -0.11814555129E+00 -0.59457317427E+00  0.58362162360E+02  0.58838494177E+02  0.74470750000E+01 0. -1.
<mgrwt>
<rscale>  0 0.14948164E+02</rscale>
<asrwt>0</asrwt>
<pdfrwt beam="1">  1        2 0.99800088E+00 0.14948164E+02</pdfrwt>
<pdfrwt beam="2">  1       -2 0.98684552E+00 0.14948164E+02</pdfrwt>
<totfact> 0.14374449E-13</totfact>
</mgrwt>
</event>
<event>
 4    1 -0.5010510E-019  0.1501028E+02  0.7818608E-02  0.1867755E+00
         -2   -1    0    0    0  501 -0.00000000000E+00  0.00000000000E+00  0.12013652254E+03  0.12013652257E+03  0.25500000000E-02 0. -1.
          2   -1    0    0  501    0  0.00000000000E+00 -0.00000000000E+00 -0.46885550692E+00  0.46886244131E+00  0.25500000000E-02 0.  1.
         31    1    1    2    0    0  0.15305993267E+00 -0.53243734648E+00  0.65853259508E+02  0.66275316905E+02  0.74470750000E+01 0. -1.
        -31    1    1    2    0    0 -0.15305993267E+00  0.53243734648E+00  0.53814407525E+02  0.54330068104E+02  0.74470750000E+01 0.  1.
<mgrwt>
<rscale>  0 0.15010275E+02</rscale>
<asrwt>0</asrwt>
<pdfrwt beam="2">  1        2 0.99581296E+00 0.15010275E+02</pdfrwt>
<pdfrwt beam="1">  1       -2 0.99724971E+00 0.15010275E+02</pdfrwt>
<totfact>-0.81902080E-14</totfact>
</mgrwt>
</event>
<event>
 4    1  0.5010510E-019  0.1490551E+02  0.7818608E-02  0.1870966E+00
         -2   -1    0    0    0  501 -0.00000000000E+00  0.00000000000E+00  0.11831401429E+03  0.11831401432E+03  0.25500000000E-02 0. -1.
          2   -1    0    0  501    0  0.00000000000E+00 -0.00000000000E+00 -0.46945549749E+00  0.46946242302E+00  0.25500000000E-02 0.  1.
         31    1    1    2    0    0 -0.25947020737E+00 -0.48522062108E-01  0.59897384208E+02  0.60359135515E+02  0.74470750000E+01 0.  1.
        -31    1    1    2    0    0  0.25947020737E+00  0.48522062108E-01  0.57947174588E+02  0.58424341228E+02  0.74470750000E+01 0. -1.
<mgrwt>
<rscale>  0 0.14905513E+02</rscale>
<asrwt>0</asrwt>
<pdfrwt beam="2">  1        2 0.99702253E+00 0.14905513E+02</pdfrwt>
<pdfrwt beam="1">  1       -2 0.98218489E+00 0.14905513E+02</pdfrwt>
<totfact> 0.69458794E-13</totfact>
</mgrwt>
</event>
<event>
 4    1 -0.5010510E-019  0.1491991E+02  0.7818608E-02  0.1870522E+00
          2   -1    0    0  501    0  0.00000000000E+00  0.00000000000E+00  0.11909390297E+03  0.11909390300E+03  0.25500000000E-02 0. -1.
         -2   -1    0    0    0  501 -0.00000000000E+00 -0.00000000000E+00 -0.46728269461E+00  0.46728965234E+00  0.25500000000E-02 0.  1.
         31    1    1    2    0    0 -0.40260984806E-01 -0.32948725148E+00  0.61605637247E+02  0.62055005032E+02  0.74470750000E+01 0. -1.
        -31    1    1    2    0    0  0.40260984806E-01  0.32948725148E+00  0.57020983031E+02  0.57506187621E+02  0.74470750000E+01 0. -1.
<mgrwt>
<rscale>  0 0.14919911E+02</rscale>
<asrwt>0</asrwt>
<pdfrwt beam="1">  1        2 0.98861559E+00 0.14919911E+02</pdfrwt>
<pdfrwt beam="2">  1       -2 0.99245175E+00 0.14919911E+02</pdfrwt>
<totfact>-0.15867582E-13</totfact>
</mgrwt>
</event>
<event>
 4    1 -0.5010510E-019  0.1499478E+02  0.7818608E-02  0.1868228E+00
          2   -1    0    0  501    0  0.00000000000E+00  0.00000000000E+00  0.11944490724E+03  0.11944490727E+03  0.25500000000E-02 0.  1.
         -2   -1    0    0    0  501 -0.00000000000E+00 -0.00000000000E+00 -0.47059735054E+00  0.47060425926E+00  0.25500000000E-02 0. -1.
         31    1    1    2    0    0 -0.48133135291E+00  0.53533673133E+00  0.63353025269E+02  0.63793283362E+02  0.74470750000E+01 0.  1.
        -31    1    1    2    0    0  0.48133135291E+00 -0.53533673133E+00  0.55621284624E+02  0.56122228168E+02  0.74470750000E+01 0. -1.
<mgrwt>
<rscale>  0 0.14994782E+02</rscale>
<asrwt>0</asrwt>
<pdfrwt beam="1">  1        2 0.99154535E+00 0.14994782E+02</pdfrwt>
<pdfrwt beam="2">  1       -2 0.99947543E+00 0.14994782E+02</pdfrwt>
<totfact>-0.27744987E-14</totfact>
</mgrwt>
</event>
<event>
 4    1  0.5010510E-019  0.1491058E+02  0.7818608E-02  0.1870809E+00
          2   -1    0    0  501    0  0.00000000000E+00  0.00000000000E+00  0.12015476562E+03  0.12015476565E+03  0.25500000000E-02 0.  1.
         -2   -1    0    0    0  501 -0.00000000000E+00 -0.00000000000E+00 -0.46257799752E+00  0.46258502601E+00  0.25500000000E-02 0. -1.
         31    1    1    2    0    0  0.10440673262E+00  0.27712956020E+00  0.58338151045E+02  0.58812298841E+02  0.74470750000E+01 0. -1.
        -31    1    1    2    0    0 -0.10440673262E+00 -0.27712956020E+00  0.61354036579E+02  0.61805051833E+02  0.74470750000E+01 0.  1.
<mgrwt>
<rscale>  0 0.14910584E+02</rscale>
<asrwt>0</asrwt>
<pdfrwt beam="1">  1        2 0.99734865E+00 0.14910584E+02</pdfrwt>
<pdfrwt beam="2">  1       -2 0.98253192E+00 0.14910584E+02</pdfrwt>
<totfact> 0.59671349E-13</totfact>
</mgrwt>
</event>
<event>
 4    1 -0.5010510E-019  0.1493600E+02  0.7818608E-02  0.1870028E+00
          2   -1    0    0  501    0  0.00000000000E+00  0.00000000000E+00  0.11883661774E+03  0.11883661777E+03  0.25500000000E-02 0. -1.
         -2   -1    0    0    0  501 -0.00000000000E+00 -0.00000000000E+00 -0.46930466053E+00  0.46931158828E+00  0.25500000000E-02 0.  1.
         31    1    1    2    0    0  0.45716377357E+00 -0.10595657912E+00  0.56762916203E+02  0.57251269047E+02  0.74470750000E+01 0. -1.
        -31    1    1    2    0    0 -0.45716377357E+00  0.10595657912E+00  0.61604396877E+02  0.62054660310E+02  0.74470750000E+01 0. -1.
<mgrwt>
<rscale>  0 0.14935996E+02</rscale>
<asrwt>0</asrwt>
<pdfrwt beam="1">  1        2 0.98650490E+00 0.14935996E+02</pdfrwt>
<pdfrwt beam="2">  1       -2 0.99672077E+00 0.14935996E+02</pdfrwt>
<totfact>-0.23245931E-13</totfact>
</mgrwt>
</event>
<event>
 4    1  0.5010510E-019  0.1489918E+02  0.7818608E-02  0.1871161E+00
         -2   -1    0    0    0  501 -0.00000000000E+00  0.00000000000E+00  0.11798458877E+03  0.11798458880E+03  0.25500000000E-02 0. -1.
          2   -1    0    0  501    0  0.00000000000E+00 -0.00000000000E+00 -0.47036604537E+00  0.47037295748E+00  0.25500000000E-02 0.  1.
         31    1    1    2    0    0  0.28637741746E-01  0.18562213113E+00  0.59126075404E+02  0.59593514701E+02  0.74470750000E+01 0.  1.
        -31    1    1    2    0    0 -0.28637741746E-01 -0.18562213113E+00  0.58388147325E+02  0.58861447058E+02  0.74470750000E+01 0.  1.
<mgrwt>
<rscale>  0 0.14899175E+02</rscale>
<asrwt>0</asrwt>
<pdfrwt beam="2">  1        2 0.99893761E+00 0.14899175E+02</pdfrwt>
<pdfrwt beam="1">  1       -2 0.97946850E+00 0.14899175E+02</pdfrwt>
<totfact> 0.49991739E-13</totfact>
</mgrwt>
</event>
<event>
 4    1 -0.5010510E-019  0.1494947E+02  0.7818608E-02  0.1869614E+00
         -2   -1    0    0    0  501 -0.00000000000E+00  0.00000000000E+00  0.12014837803E+03  0.12014837806E+03  0.25500000000E-02 0. -1.
          2   -1    0    0  501    0  0.00000000000E+00 -0.00000000000E+00 -0.46501883575E+00  0.46502582735E+00  0.25500000000E-02 0.  1.
         31    1    1    2    0    0 -0.46364240121E+00  0.19806070040E+00  0.56628968435E+02  0.57118763855E+02  0.74470750000E+01 0.  1.
        -31    1    1    2    0    0  0.46364240121E+00 -0.19806070040E+00  0.63054390758E+02  0.63494640027E+02  0.74470750000E+01 0. -1.
<mgrwt>
<rscale>  0 0.14949473E+02</rscale>
<asrwt>0</asrwt>
<pdfrwt beam="2">  1        2 0.98769608E+00 0.14949473E+02</pdfrwt>
<pdfrwt beam="1">  1       -2 0.99731601E+00 0.14949473E+02</pdfrwt>
<totfact>-0.17249294E-13</totfact>
</mgrwt>
</event>
<event>
 4    1 -0.5010510E-019  0.1493660E+02  0.7818608E-02  0.1870009E+00
          2   -1    0    0  501    0  0.00000000000E+00  0.00000000000E+00  0.11935481058E+03  0.11935481061E+03  0.25500000000E-02 0.  1.
         -2   -1    0    0    0  501 -0.00000000000E+00 -0.00000000000E+00 -0.46730511027E+00  0.46731206767E+00  0.25500000000E-02 0. -1.
         31    1    1    2    0    0  0.41124490346E+00 -0.98564273970E-01  0.56466200517E+02  0.56956734142E+02  0.74470750000E+01 0.  1.
        -31    1    1    2    0    0 -0.41124490346E+00  0.98564273970E-01  0.62421304955E+02  0.62865388534E+02  0.74470750000E+01 0.  1.
<mgrwt>
<rscale>  0 0.14936604E+02</rscale>
<asrwt>0</asrwt>
<pdfrwt beam="1">  1        2 0.99077315E+00 0.14936604E+02</pdfrwt>
<pdfrwt beam="2">  1       -2 0.99250765E+00 0.14936604E+02</pdfrwt>
<totfact>-0.12964631E-13</totfact>
</mgrwt>
</event>
<event>
 4    1 -0.5010510E-019  0.1492944E+02  0.7818608E-02  0.1870229E+00
          2   -1    0    0  501    0  0.00000000000E+00  0.00000000000E+00  0.11847338959E+03  0.11847338961E+03  0.25500000000E-02 0. -1.
         -2   -1    0    0    0  501 -0.00000000000E+00 -0.00000000000E+00 -0.47033053068E+00  0.47033744333E+00  0.25500000000E-02 0.  1.
         31    1    1    2    0    0  0.36996282612E+00  0.51924551753E-01  0.56200905115E+02  0.56693387890E+02  0.74470750000E+01 0.  1.
        -31    1    1    2    0    0 -0.36996282612E+00 -0.51924551753E-01  0.61802153940E+02  0.62250339166E+02  0.74470750000E+01 0. -1.
<mgrwt>
<rscale>  0 0.14929443E+02</rscale>
<asrwt>0</asrwt>
<pdfrwt beam="1">  1        2 0.98350996E+00 0.14929443E+02</pdfrwt>
<pdfrwt beam="2">  1       -2 0.99887885E+00 0.14929443E+02</pdfrwt>
<totfact>-0.16030188E-13</totfact>
</mgrwt>
</event>
<event>
 4    1 -0.5010510E-019  0.1492705E+02  0.7818608E-02  0.1870303E+00
         -2   -1    0    0    0  501 -0.00000000000E+00  0.00000000000E+00  0.12034112573E+03  0.12034112575E+03  0.25500000000E-02 0. -1.
          2   -1    0    0  501    0  0.00000000000E+00 -0.00000000000E+00 -0.46288260225E+00  0.46288962612E+00  0.25500000000E-02 0.  1.
         31    1    1    2    0    0 -0.77184999690E-01  0.30184947137E-01  0.55987266516E+02  0.56480437380E+02  0.74470750000E+01 0.  1.
        -31    1    1    2    0    0  0.77184999690E-01 -0.30184947137E-01  0.63890976609E+02  0.64323578001E+02  0.74470750000E+01 0. -1.
<mgrwt>
<rscale>  0 0.14927055E+02</rscale>
<asrwt>0</asrwt>
<pdfrwt beam="2">  1        2 0.98318226E+00 0.14927055E+02</pdfrwt>
<pdfrwt beam="1">  1       -2 0.99889212E+00 0.14927055E+02</pdfrwt>
<totfact>-0.16758530E-13</totfact>
</mgrwt>
</event>
<event>
 4    1 -0.5010510E-019  0.1495955E+02  0.7818608E-02  0.1869305E+00
         -2   -1    0    0    0  501 -0.00000000000E+00  0.00000000000E+00  0.12003313898E+03  0.12003313901E+03  0.25500000000E-02 0. -1.
          2   -1    0    0  501    0  0.00000000000E+00 -0.00000000000E+00 -0.46609308107E+00  0.46610005656E+00  0.25500000000E-02 0.  1.
         31    1    1    2    0    0 -0.61522894939E+00 -0.32559327325E+00  0.59300640159E+02  0.59770472367E+02  0.74470750000E+01 0. -1.
        -31    1    1    2    0    0  0.61522894939E+00  0.32559327325E+00  0.60266405737E+02  0.60728766694E+02  0.74470750000E+01 0.  1.
<mgrwt>
<rscale>  0 0.14959550E+02</rscale>
<asrwt>0</asrwt>
<pdfrwt beam="2">  1        2 0.98996524E+00 0.14959550E+02</pdfrwt>
<pdfrwt beam="1">  1       -2 0.99637202E+00 0.14959550E+02</pdfrwt>
<totfact>-0.16051006E-13</totfact>
</mgrwt>
</event>
<event>
 4    1  0.5010510E-019  0.1490434E+02  0.7818608E-02  0.1871002E+00
          2   -1    0    0  501    0  0.00000000000E+00  0.00000000000E+00  0.11979411198E+03  0.11979411201E+03  0.25500000000E-02 0. -1.
         -2   -1    0    0    0  501 -0.00000000000E+00 -0.00000000000E+00 -0.46358226542E+00  0.46358927868E+00  0.25500000000E-02 0.  1.
         31    1    1    2    0    0  0.21787517538E+00  0.38690490326E-01  0.60990009694E+02  0.61443381866E+02  0.74470750000E+01 0.  1.
        -31    1    1    2    0    0 -0.21787517538E+00 -0.38690490326E-01  0.58340520025E+02  0.58814319425E+02  0.74470750000E+01 0. -1.
<mgrwt>
<rscale>  0 0.14904342E+02</rscale>
<asrwt>0</asrwt>
<pdfrwt beam="1">  1        2 0.99437481E+00 0.14904342E+02</pdfrwt>
<pdfrwt beam="2">  1       -2 0.98464540E+00 0.14904342E+02</pdfrwt>
<totfact> 0.56718057E-13</totfact>
</mgrwt>
</event>
<event>
 4    1  0.5010510E-019  0.1490055E+02  0.7818608E-02  0.1871119E+00
         -2   -1    0    0    0  501 -0.00000000000E+00  0.00000000000E+00  0.11828947742E+03  0.11828947745E+03  0.25500000000E-02 0. -1.
          2   -1    0    0  501    0  0.00000000000E+00 -0.00000000000E+00 -0.46924012516E+00  0.46924705386E+00  0.25500000000E-02 0.  1.
         31    1    1    2    0    0  0.61082913883E-01  0.11878758826E+00  0.57533931204E+02  0.58014050087E+02  0.74470750000E+01 0.  1.
        -31    1    1    2    0    0 -0.61082913883E-01 -0.11878758826E+00  0.60286306090E+02  0.60744674414E+02  0.74470750000E+01 0. -1.
<mgrwt>
<rscale>  0 0.14900548E+02</rscale>
<asrwt>0</asrwt>
<pdfrwt beam="2">  1        2 0.99656612E+00 0.14900548E+02</pdfrwt>
<pdfrwt beam="1">  1       -2 0.98198023E+00 0.14900548E+02</pdfrwt>
<totfact> 0.79452959E-13</totfact>
</mgrwt>
</event>
<event>
 4    1 -0.5010510E-019  0.1499085E+02  0.7818608E-02  0.1868348E+00
         -2   -1    0    0    0  501 -0.00000000000E+00  0.00000000000E+00  0.11991937142E+03  0.11991937145E+03  0.25500000000E-02 0.  1.
          2   -1    0    0  501    0  0.00000000000E+00 -0.00000000000E+00 -0.46848971916E+00  0.46849665896E+00  0.25500000000E-02 0. -1.
         31    1    1    2    0    0  0.42549844842E+00  0.54467130552E-01  0.65618452518E+02  0.66041080038E+02  0.74470750000E+01 0.  1.
        -31    1    1    2    0    0 -0.42549844842E+00 -0.54467130552E-01  0.53832429185E+02  0.54346788070E+02  0.74470750000E+01 0. -1.
<mgrwt>
<rscale>  0 0.14990852E+02</rscale>
<asrwt>0</asrwt>
<pdfrwt beam="2">  1        2 0.99503208E+00 0.14990852E+02</pdfrwt>
<pdfrwt beam="1">  1       -2 0.99545112E+00 0.14990852E+02</pdfrwt>
<totfact>-0.11675473E-13</totfact>
</mgrwt>
</event>
<event>
 4    1 -0.5010510E-019  0.1496284E+02  0.7818608E-02  0.1869205E+00
         -2   -1    0    0    0  501 -0.00000000000E+00  0.00000000000E+00  0.12028020827E+03  0.12028020830E+03  0.25500000000E-02 0.  1.
          2   -1    0    0  501    0  0.00000000000E+00 -0.00000000000E+00 -0.46534032736E+00  0.46534731413E+00  0.25500000000E-02 0. -1.
         31    1    1    2    0    0  0.39686373206E+00  0.52249114258E+00  0.57593371743E+02  0.58076552003E+02  0.74470750000E+01 0.  1.
        -31    1    1    2    0    0 -0.39686373206E+00 -0.52249114258E+00  0.62221496198E+02  0.62669003606E+02  0.74470750000E+01 0.  1.
<mgrwt>
<rscale>  0 0.14962841E+02</rscale>
<asrwt>0</asrwt>
<pdfrwt beam="2">  1        2 0.98838046E+00 0.14962841E+02</pdfrwt>
<pdfrwt beam="1">  1       -2 0.99840874E+00 0.14962841E+02</pdfrwt>
<totfact>-0.10461894E-13</totfact>
</mgrwt>
</event>
<event>
 4    1 -0.5010510E-019  0.1493981E+02  0.7818608E-02  0.1869911E+00
         -2   -1    0    0    0  501 -0.00000000000E+00  0.00000000000E+00  0.11978197942E+03  0.11978197945E+03  0.25500000000E-02 0. -1.
          2   -1    0    0  501    0  0.00000000000E+00 -0.00000000000E+00 -0.46583875874E+00  0.46584573804E+00  0.25500000000E-02 0.  1.
         31    1    1    2    0    0 -0.16571220793E+00  0.50242127359E+00  0.57675116582E+02  0.58156322842E+02  0.74470750000E+01 0. -1.
        -31    1    1    2    0    0  0.16571220793E+00 -0.50242127359E+00  0.61641024083E+02  0.62091502347E+02  0.74470750000E+01 0. -1.
<mgrwt>
<rscale>  0 0.14939814E+02</rscale>
<asrwt>0</asrwt>
<pdfrwt beam="2">  1        2 0.98941915E+00 0.14939814E+02</pdfrwt>
<pdfrwt beam="1">  1       -2 0.99429315E+00 0.14939814E+02</pdfrwt>
<totfact>-0.18808185E-13</totfact>
</mgrwt>
</event>
<event>
 4    1  0.5010510E-019  0.1492090E+02  0.7818608E-02  0.1870492E+00
          2   -1    0    0  501    0  0.00000000000E+00  0.00000000000E+00  0.11984186360E+03  0.11984186363E+03  0.25500000000E-02 0. -1.
         -2   -1    0    0    0  501 -0.00000000000E+00 -0.00000000000E+00 -0.46442747956E+00  0.46443448006E+00  0.25500000000E-02 0.  1.
         31    1    1    2    0    0 -0.34603654900E+00 -0.26851684819E+00  0.58990039888E+02  0.59459865243E+02  0.74470750000E+01 0. -1.
        -31    1    1    2    0    0  0.34603654900E+00  0.26851684819E+00  0.60387396234E+02  0.60846432867E+02  0.74470750000E+01 0.  1.
<mgrwt>
<rscale>  0 0.14920895E+02</rscale>
<asrwt>0</asrwt>
<pdfrwt beam="1">  1        2 0.99477665E+00 0.14920895E+02</pdfrwt>
<pdfrwt beam="2">  1       -2 0.98643519E+00 0.14920895E+02</pdfrwt>
<totfact> 0.31322071E-13</totfact>
</mgrwt>
</event>
<event>
 4    1 -0.5010510E-019  0.1493229E+02  0.7818608E-02  0.1870142E+00
         -2   -1    0    0    0  501 -0.00000000000E+00  0.00000000000E+00  0.11953371605E+03  0.11953371608E+03  0.25500000000E-02 0. -1.
          2   -1    0    0  501    0  0.00000000000E+00 -0.00000000000E+00 -0.46633638861E+00  0.46634336046E+00  0.25500000000E-02 0.  1.
         31    1    1    2    0    0  0.85056312300E-01  0.42181657011E-01  0.55316354816E+02  0.55815473214E+02  0.74470750000E+01 0.  1.
        -31    1    1    2    0    0 -0.85056312300E-01 -0.42181657011E-01  0.63751024848E+02  0.64184586227E+02  0.74470750000E+01 0. -1.
<mgrwt>
<rscale>  0 0.14932293E+02</rscale>
<asrwt>0</asrwt>
<pdfrwt beam="2">  1        2 0.99046400E+00 0.14932293E+02</pdfrwt>
<pdfrwt beam="1">  1       -2 0.99224445E+00 0.14932293E+02</pdfrwt>
<totfact>-0.12329322E-13</totfact>
</mgrwt>
</event>
<event>
 4    1 -0.5010510E-019  0.1495913E+02  0.7818608E-02  0.1869318E+00
         -2   -1    0    0    0  501 -0.00000000000E+00  0.00000000000E+00  0.11979688816E+03  0.11979688818E+03  0.25500000000E-02 0. -1.
          2   -1    0    0  501    0  0.00000000000E+00 -0.00000000000E+00 -0.46698622762E+00  0.46699318977E+00  0.25500000000E-02 0.  1.
         31    1    1    2    0    0  0.17499074066E-01 -0.68927321099E+00  0.58877764571E+02  0.59350867649E+02  0.74470750000E+01 0.  1.
        -31    1    1    2    0    0 -0.17499074066E-01  0.68927321099E+00  0.60452137359E+02  0.60913013725E+02  0.74470750000E+01 0.  1.
<mgrwt>
<rscale>  0 0.14959133E+02</rscale>
<asrwt>0</asrwt>
<pdfrwt beam="2">  1        2 0.99184730E+00 0.14959133E+02</pdfrwt>
<pdfrwt beam="1">  1       -2 0.99442592E+00 0.14959133E+02</pdfrwt>
<totfact>-0.15278848E-13</totfact>
</mgrwt>
</event>
<event>
 4    1  0.5010510E-019  0.1490438E+02  0.7818608E-02  0.1871000E+00
          2   -1    0    0  501    0  0.00000000000E+00  0.00000000000E+00  0.11974501094E+03  0.11974501096E+03  0.25500000000E-02 0.  1.
         -2   -1    0    0    0  501 -0.00000000000E+00 -0.00000000000E+00 -0.46377486005E+00  0.46378187040E+00  0.25500000000E-02 0. -1.
         31    1    1    2    0    0 -0.13139272449E+00  0.23076039698E+00  0.59031260434E+02  0.59499740746E+02  0.74470750000E+01 0. -1.
        -31    1    1    2    0    0  0.13139272449E+00 -0.23076039698E+00  0.60249975643E+02  0.60709052089E+02  0.74470750000E+01 0.  1.
<mgrwt>
<rscale>  0 0.14904382E+02</rscale>
<asrwt>0</asrwt>
<pdfrwt beam="1">  1        2 0.99397040E+00 0.14904382E+02</pdfrwt>
<pdfrwt beam="2">  1       -2 0.98505133E+00 0.14904382E+02</pdfrwt>
<totfact> 0.52440860E-13</totfact>
</mgrwt>
</event>
<event>
 4    1 -0.5010510E-019  0.1497084E+02  0.7818608E-02  0.1868960E+00
         -2   -1    0    0    0  501 -0.00000000000E+00  0.00000000000E+00  0.12009666853E+03  0.12009666856E+03  0.25500000000E-02 0.  1.
          2   -1    0    0  501    0  0.00000000000E+00 -0.00000000000E+00 -0.46655005688E+00  0.46655702553E+00  0.25500000000E-02 0. -1.
         31    1    1    2    0    0 -0.14802018731E+00 -0.35570578641E+00  0.54570163448E+02  0.55077310223E+02  0.74470750000E+01 0. -1.
        -31    1    1    2    0    0  0.14802018731E+00  0.35570578641E+00  0.65059955024E+02  0.65485915358E+02  0.74470750000E+01 0.  1.
<mgrwt>
<rscale>  0 0.14970842E+02</rscale>
<asrwt>0</asrwt>
<pdfrwt beam="2">  1        2 0.99093410E+00 0.14970842E+02</pdfrwt>
<pdfrwt beam="1">  1       -2 0.99690110E+00 0.14970842E+02</pdfrwt>
<totfact>-0.13443232E-13</totfact>
</mgrwt>
</event>
<event>
 4    1 -0.5010510E-019  0.1499448E+02  0.7818608E-02  0.1868237E+00
         -2   -1    0    0    0  501 -0.00000000000E+00  0.00000000000E+00  0.12031365257E+03  0.12031365260E+03  0.25500000000E-02 0.  1.
          2   -1    0    0  501    0  0.00000000000E+00 -0.00000000000E+00 -0.46718040895E+00  0.46718736820E+00  0.25500000000E-02 0. -1.
         31    1    1    2    0    0  0.65124625090E+00 -0.25184171329E+00  0.64047306962E+02  0.64482586805E+02  0.74470750000E+01 0.  1.
        -31    1    1    2    0    0 -0.65124625090E+00  0.25184171329E+00  0.55799165203E+02  0.56298253165E+02  0.74470750000E+01 0. -1.
<mgrwt>
<rscale>  0 0.14994479E+02</rscale>
<asrwt>0</asrwt>
<pdfrwt beam="2">  1        2 0.99227467E+00 0.14994479E+02</pdfrwt>
<pdfrwt beam="1">  1       -2 0.99870049E+00 0.14994479E+02</pdfrwt>
<totfact>-0.61140211E-14</totfact>
</mgrwt>
</event>
<event>
 4    1  0.5010510E-019  0.1491493E+02  0.7818608E-02  0.1870675E+00
         -2   -1    0    0    0  501 -0.00000000000E+00  0.00000000000E+00  0.11843575410E+03  0.11843575413E+03  0.25500000000E-02 0.  1.
          2   -1    0    0  501    0  0.00000000000E+00 -0.00000000000E+00 -0.46956592282E+00  0.46957284672E+00  0.25500000000E-02 0. -1.
         31    1    1    2    0    0  0.16131919293E+00  0.20689962731E+00  0.61321692065E+02  0.61772790735E+02  0.74470750000E+01 0.  1.
        -31    1    1    2    0    0 -0.16131919293E+00 -0.20689962731E+00  0.56644496113E+02  0.57132536241E+02  0.74470750000E+01 0.  1.
<mgrwt>
<rscale>  0 0.14914933E+02</rscale>
<asrwt>0</asrwt>
<pdfrwt beam="2">  1        2 0.99726017E+00 0.14914933E+02</pdfrwt>
<pdfrwt beam="1">  1       -2 0.98319244E+00 0.14914933E+02</pdfrwt>
<totfact> 0.52924154E-13</totfact>
</mgrwt>
</event>
<event>
 4    1  0.5010510E-019  0.1491318E+02  0.7818608E-02  0.1870729E+00
          2   -1    0    0  501    0  0.00000000000E+00  0.00000000000E+00  0.12021129746E+03  0.12021129749E+03  0.25500000000E-02 0. -1.
         -2   -1    0    0    0  501 -0.00000000000E+00 -0.00000000000E+00 -0.46252155993E+00  0.46252858928E+00  0.25500000000E-02 0.  1.
         31    1    1    2    0    0 -0.34486773640E+00 -0.38255271424E-01  0.61058643673E+02  0.61512090604E+02  0.74470750000E+01 0.  1.
        -31    1    1    2    0    0  0.34486773640E+00  0.38255271424E-01  0.58690132227E+02  0.59161735472E+02  0.74470750000E+01 0.  1.
<mgrwt>
<rscale>  0 0.14913181E+02</rscale>
<asrwt>0</asrwt>
<pdfrwt beam="1">  1        2 0.99781563E+00 0.14913181E+02</pdfrwt>
<pdfrwt beam="2">  1       -2 0.98241428E+00 0.14913181E+02</pdfrwt>
<totfact> 0.53035219E-13</totfact>
</mgrwt>
</event>
<event>
 4    1 -0.5010510E-019  0.1491382E+02  0.7818608E-02  0.1870710E+00
         -2   -1    0    0    0  501 -0.00000000000E+00  0.00000000000E+00  0.11941870216E+03  0.11941870219E+03  0.25500000000E-02 0.  1.
          2   -1    0    0  501    0  0.00000000000E+00 -0.00000000000E+00 -0.46563114792E+00  0.46563813033E+00  0.25500000000E-02 0. -1.
         31    1    1    2    0    0 -0.22392369787E+00  0.22706317083E+00  0.57773934604E+02  0.58252795171E+02  0.74470750000E+01 0.  1.
        -31    1    1    2    0    0  0.22392369787E+00 -0.22706317083E+00  0.61179136407E+02  0.61631545146E+02  0.74470750000E+01 0.  1.
<mgrwt>
<rscale>  0 0.14913817E+02</rscale>
<asrwt>0</asrwt>
<pdfrwt beam="2">  1        2 0.98896826E+00 0.14913817E+02</pdfrwt>
<pdfrwt beam="1">  1       -2 0.99128760E+00 0.14913817E+02</pdfrwt>
<totfact>-0.89570772E-14</totfact>
</mgrwt>
</event>
<event>
 4    1 -0.5010510E-019  0.1491432E+02  0.7818608E-02  0.1870694E+00
         -2   -1    0    0    0  501 -0.00000000000E+00  0.00000000000E+00  0.11931084263E+03  0.11931084266E+03  0.25500000000E-02 0.  1.
          2   -1    0    0  501    0  0.00000000000E+00 -0.00000000000E+00 -0.46608380112E+00  0.46609077674E+00  0.25500000000E-02 0. -1.
         31    1    1    2    0    0 -0.12700442294E+00  0.37379180263E-01  0.56495555979E+02  0.56984421544E+02  0.74470750000E+01 0. -1.
        -31    1    1    2    0    0  0.12700442294E+00 -0.37379180263E-01  0.62349202853E+02  0.62792511893E+02  0.74470750000E+01 0.  1.
<mgrwt>
<rscale>  0 0.14914325E+02</rscale>
<asrwt>0</asrwt>
<pdfrwt beam="2">  1        2 0.98992243E+00 0.14914325E+02</pdfrwt>
<pdfrwt beam="1">  1       -2 0.99039949E+00 0.14914325E+02</pdfrwt>
<totfact>-0.20086814E-14</totfact>
</mgrwt>
</event>
<event>
 4    1 -0.5010510E-019  0.1498386E+02  0.7818608E-02  0.1868561E+00
          2   -1    0    0  501    0  0.00000000000E+00  0.00000000000E+00  0.11984435291E+03  0.11984435294E+03  0.25500000000E-02 0. -1.
         -2   -1    0    0    0  501 -0.00000000000E+00 -0.00000000000E+00 -0.46834580513E+00  0.46835274706E+00  0.25500000000E-02 0.  1.
         31    1    1    2    0    0  0.24151622669E+00 -0.31622342526E+00  0.65432122132E+02  0.65855750396E+02  0.74470750000E+01 0. -1.
        -31    1    1    2    0    0 -0.24151622669E+00  0.31622342526E+00  0.53943884973E+02  0.54456955289E+02  0.74470750000E+01 0.  1.
<mgrwt>
<rscale>  0 0.14983861E+02</rscale>
<asrwt>0</asrwt>
<pdfrwt beam="1">  1        2 0.99482963E+00 0.14983861E+02</pdfrwt>
<pdfrwt beam="2">  1       -2 0.99472519E+00 0.14983861E+02</pdfrwt>
<totfact>-0.12165522E-13</totfact>
</mgrwt>
</event>
<event>
 4    1  0.5010510E-019  0.1490851E+02  0.7818608E-02  0.1870873E+00
         -2   -1    0    0    0  501 -0.00000000000E+00  0.00000000000E+00  0.11898674571E+03  0.11898674574E+03  0.25500000000E-02 0. -1.
          2   -1    0    0  501    0  0.00000000000E+00 -0.00000000000E+00 -0.46698870063E+00  0.46699566273E+00  0.25500000000E-02 0.  1.
         31    1    1    2    0    0 -0.21727136043E+00  0.20216535323E+00  0.60360811458E+02  0.60819195684E+02  0.74470750000E+01 0. -1.
        -31    1    1    2    0    0  0.21727136043E+00 -0.20216535323E+00  0.58158945551E+02  0.58634545716E+02  0.74470750000E+01 0.  1.
<mgrwt>
<rscale>  0 0.14908505E+02</rscale>
<asrwt>0</asrwt>
<pdfrwt beam="2">  1        2 0.99182631E+00 0.14908505E+02</pdfrwt>
<pdfrwt beam="1">  1       -2 0.98772711E+00 0.14908505E+02</pdfrwt>
<totfact> 0.22555029E-13</totfact>
</mgrwt>
</event>
<event>
 4    1  0.5010510E-019  0.1493593E+02  0.7818608E-02  0.1870030E+00
          2   -1    0    0  501    0  0.00000000000E+00  0.00000000000E+00  0.12015474431E+03  0.12015474434E+03  0.25500000000E-02 0. -1.
         -2   -1    0    0    0  501 -0.00000000000E+00 -0.00000000000E+00 -0.46415206747E+00  0.46415907212E+00  0.25500000000E-02 0.  1.
         31    1    1    2    0    0  0.53494759887E+00 -0.63358852902E-01  0.58664253656E+02  0.59137498817E+02  0.74470750000E+01 0.  1.
        -31    1    1    2    0    0 -0.53494759887E+00  0.63358852902E-01  0.61026338590E+02  0.61481404596E+02  0.74470750000E+01 0. -1.
<mgrwt>
<rscale>  0 0.14935929E+02</rscale>
<asrwt>0</asrwt>
<pdfrwt beam="1">  1        2 0.99736149E+00 0.14935929E+02</pdfrwt>
<pdfrwt beam="2">  1       -2 0.98586239E+00 0.14935929E+02</pdfrwt>
<totfact> 0.25208914E-13</totfact>
</mgrwt>
</event>
<event>
 4    1 -0.5010510E-019  0.1494272E+02  0.7818608E-02  0.1869822E+00
          2   -1    0    0  501    0  0.00000000000E+00  0.00000000000E+00  0.11921024746E+03  0.11921024748E+03  0.25500000000E-02 0. -1.
         -2   -1    0    0    0  501 -0.00000000000E+00 -0.00000000000E+00 -0.46825488543E+00  0.46826182871E+00  0.25500000000E-02 0.  1.
         31    1    1    2    0    0 -0.40899835739E+00 -0.44110759357E+00  0.59207590641E+02  0.59677127705E+02  0.74470750000E+01 0. -1.
        -31    1    1    2    0    0  0.40899835739E+00  0.44110759357E+00  0.59534401930E+02  0.60001381607E+02  0.74470750000E+01 0. -1.
<mgrwt>
<rscale>  0 0.14942717E+02</rscale>
<asrwt>0</asrwt>
<pdfrwt beam="1">  1        2 0.98958565E+00 0.14942717E+02</pdfrwt>
<pdfrwt beam="2">  1       -2 0.99451225E+00 0.14942717E+02</pdfrwt>
<totfact>-0.18607286E-13</totfact>
</mgrwt>
</event>
<event>
 4    1 -0.5010510E-019  0.1500703E+02  0.7818608E-02  0.1867854E+00
         -2   -1    0    0    0  501 -0.00000000000E+00  0.00000000000E+00  0.11982970608E+03  0.11982970610E+03  0.25500000000E-02 0. -1.
          2   -1    0    0  501    0  0.00000000000E+00 -0.00000000000E+00 -0.46985282877E+00  0.46985974844E+00  0.25500000000E-02 0.  1.
         31    1    1    2    0    0 -0.67980142997E-02 -0.69598976694E+00  0.64485445755E+02  0.64917764042E+02  0.74470750000E+01 0.  1.
        -31    1    1    2    0    0  0.67980142997E-02  0.69598976694E+00  0.54874407492E+02  0.55381801809E+02  0.74470750000E+01 0. -1.
<mgrwt>
<rscale>  0 0.15007031E+02</rscale>
<asrwt>0</asrwt>
<pdfrwt beam="2">  1        2 0.99791295E+00 0.15007031E+02</pdfrwt>
<pdfrwt beam="1">  1       -2 0.99472098E+00 0.15007031E+02</pdfrwt>
<totfact>-0.67868607E-14</totfact>
</mgrwt>
</event>
<event>
 4    1 -0.5010510E-019  0.1497885E+02  0.7818608E-02  0.1868715E+00
         -2   -1    0    0    0  501 -0.00000000000E+00  0.00000000000E+00  0.11985075412E+03  0.11985075415E+03  0.25500000000E-02 0.  1.
          2   -1    0    0  501    0  0.00000000000E+00 -0.00000000000E+00 -0.46800776399E+00  0.46801471094E+00  0.25500000000E-02 0. -1.
         31    1    1    2    0    0 -0.62905732751E+00 -0.20880563962E+00  0.63222638609E+02  0.63663178303E+02  0.74470750000E+01 0. -1.
        -31    1    1    2    0    0  0.62905732751E+00  0.20880563962E+00  0.56160107747E+02  0.56655590555E+02  0.74470750000E+01 0. -1.
<mgrwt>
<rscale>  0 0.14978852E+02</rscale>
<asrwt>0</asrwt>
<pdfrwt beam="2">  1        2 0.99401023E+00 0.14978852E+02</pdfrwt>
<pdfrwt beam="1">  1       -2 0.99487976E+00 0.14978852E+02</pdfrwt>
<totfact>-0.13073947E-13</totfact>
</mgrwt>
</event>
<event>
 4    1  0.5010510E-019  0.1491255E+02  0.7818608E-02  0.1870749E+00
          2   -1    0    0  501    0  0.00000000000E+00  0.00000000000E+00  0.12005251456E+03  0.12005251459E+03  0.25500000000E-02 0. -1.
         -2   -1    0    0    0  501 -0.00000000000E+00 -0.00000000000E+00 -0.46309404128E+00  0.46310106194E+00  0.25500000000E-02 0.  1.
         31    1    1    2    0    0 -0.14587874991E+00 -0.29429260979E+00  0.58413413351E+02  0.58887126557E+02  0.74470750000E+01 0. -1.
        -31    1    1    2    0    0  0.14587874991E+00  0.29429260979E+00  0.61176007171E+02  0.61628489095E+02  0.74470750000E+01 0.  1.
<mgrwt>
<rscale>  0 0.14912549E+02</rscale>
<asrwt>0</asrwt>
<pdfrwt beam="1">  1        2 0.99650743E+00 0.14912549E+02</pdfrwt>
<pdfrwt beam="2">  1       -2 0.98362058E+00 0.14912549E+02</pdfrwt>
<totfact> 0.56362152E-13</totfact>
</mgrwt>
</event>
<event>
 4    1 -0.5010510E-019  0.1499884E+02  0.7818608E-02  0.1868104E+00
         -2   -1    0    0    0  501 -0.00000000000E+00  0.00000000000E+00  0.12017934860E+03  0.12017934862E+03  0.25500000000E-02 0. -1.
          2   -1    0    0  501    0  0.00000000000E+00 -0.00000000000E+00 -0.46797437842E+00  0.46798132586E+00  0.25500000000E-02 0.  1.
         31    1    1    2    0    0 -0.71540999021E+00  0.48129422426E+00  0.61442067285E+02  0.61897738359E+02  0.74470750000E+01 0. -1.
        -31    1    1    2    0    0  0.71540999021E+00 -0.48129422426E+00  0.58269306932E+02  0.58749591590E+02  0.74470750000E+01 0. -1.
<mgrwt>
<rscale>  0 0.14998837E+02</rscale>
<asrwt>0</asrwt>
<pdfrwt beam="2">  1        2 0.99395017E+00 0.14998837E+02</pdfrwt>
<pdfrwt beam="1">  1       -2 0.99759654E+00 0.14998837E+02</pdfrwt>
<totfact>-0.89940245E-14</totfact>
</mgrwt>
</event>
<event>
 4    1 -0.5010510E-019  0.1495644E+02  0.7818608E-02  0.1869401E+00
          2   -1    0    0  501    0  0.00000000000E+00  0.00000000000E+00  0.11911219462E+03  0.11911219465E+03  0.25500000000E-02 0.  1.
         -2   -1    0    0    0  501 -0.00000000000E+00 -0.00000000000E+00 -0.46950132037E+00  0.46950824522E+00  0.25500000000E-02 0. -1.
         31    1    1    2    0    0  0.45427234380E+00  0.50110014037E+00  0.60007155883E+02  0.60471275395E+02  0.74470750000E+01 0. -1.
        -31    1    1    2    0    0 -0.45427234380E+00 -0.50110014037E+00  0.58635537421E+02  0.59110427501E+02  0.74470750000E+01 0.  1.
<mgrwt>
<rscale>  0 0.14956437E+02</rscale>
<asrwt>0</asrwt>
<pdfrwt beam="1">  1        2 0.98878519E+00 0.14956437E+02</pdfrwt>
<pdfrwt beam="2">  1       -2 0.99714587E+00 0.14956437E+02</pdfrwt>
<totfact>-0.15725430E-13</totfact>
</mgrwt>
</event>
<event>
 4    1  0.5010510E-019  0.1491420E+02  0.7818608E-02  0.1870698E+00
          2   -1    0    0  501    0  0.00000000000E+00  0.00000000000E+00  0.12024367440E+03  0.12024367443E+03  0.25500000000E-02 0. -1.
         -2   -1    0    0    0  501 -0.00000000000E+00 -0.00000000000E+00 -0.46246027126E+00  0.46246730154E+00  0.25500000000E-02 0.  1.
         31    1    1    2    0    0  0.76434880022E-01  0.32840415567E+00  0.61420458932E+02  0.61871200030E+02  0.74470750000E+01 0. -1.
        -31    1    1    2    0    0 -0.76434880022E-01 -0.32840415567E+00  0.58360755196E+02  0.58834941699E+02  0.74470750000E+01 0. -1.
<mgrwt>
<rscale>  0 0.14914201E+02</rscale>
<asrwt>0</asrwt>
<pdfrwt beam="1">  1        2 0.99808283E+00 0.14914201E+02</pdfrwt>
<pdfrwt beam="2">  1       -2 0.98228561E+00 0.14914201E+02</pdfrwt>
<totfact> 0.49228530E-13</totfact>
</mgrwt>
</event>
<event>
 4    1  0.5010510E-019  0.1490016E+02  0.7818608E-02  0.1871130E+00
          2   -1    0    0  501    0  0.00000000000E+00  0.00000000000E+00  0.12001643141E+03  0.12001643144E+03  0.25500000000E-02 0.  1.
         -2   -1    0    0    0  501 -0.00000000000E+00 -0.00000000000E+00 -0.46246419593E+00  0.46247122615E+00  0.25500000000E-02 0. -1.
         31    1    1    2    0    0 -0.32378455482E-01  0.18241456605E+00  0.58949306533E+02  0.59418128465E+02  0.74470750000E+01 0.  1.
        -31    1    1    2    0    0  0.32378455482E-01 -0.18241456605E+00  0.60604660684E+02  0.61060774202E+02  0.74470750000E+01 0. -1.
<mgrwt>
<rscale>  0 0.14900165E+02</rscale>
<asrwt>0</asrwt>
<pdfrwt beam="1">  1        2 0.99620386E+00 0.14900165E+02</pdfrwt>
<pdfrwt beam="2">  1       -2 0.98228679E+00 0.14900165E+02</pdfrwt>
<totfact> 0.79457939E-13</totfact>
</mgrwt>
</event>
<event>
 4    1 -0.5010510E-019  0.1491488E+02  0.7818608E-02  0.1870677E+00
          2   -1    0    0  501    0  0.00000000000E+00  0.00000000000E+00  0.11873290991E+03  0.11873290994E+03  0.25500000000E-02 0. -1.
         -2   -1    0    0    0  501 -0.00000000000E+00 -0.00000000000E+00 -0.46838715531E+00  0.46839409663E+00  0.25500000000E-02 0.  1.
         31    1    1    2    0    0 -0.16990175237E+00  0.35234192376E+00  0.58828165918E+02  0.59298946388E+02  0.74470750000E+01 0.  1.
        -31    1    1    2    0    0  0.16990175237E+00 -0.35234192376E+00  0.59436356839E+02  0.59902357648E+02  0.74470750000E+01 0. -1.
<mgrwt>
<rscale>  0 0.14914877E+02</rscale>
<asrwt>0</asrwt>
<pdfrwt beam="1">  1        2 0.98563978E+00 0.14914877E+02</pdfrwt>
<pdfrwt beam="2">  1       -2 0.99477642E+00 0.14914877E+02</pdfrwt>
<totfact>-0.31425833E-13</totfact>
</mgrwt>
</event>
<event>
 4    1 -0.5010510E-019  0.1491048E+02  0.7818608E-02  0.1870813E+00
         -2   -1    0    0    0  501 -0.00000000000E+00  0.00000000000E+00  0.12001922165E+03  0.12001922167E+03  0.25500000000E-02 0.  1.
          2   -1    0    0  501    0  0.00000000000E+00 -0.00000000000E+00 -0.46309398769E+00  0.46310100835E+00  0.25500000000E-02 0. -1.
         31    1    1    2    0    0  0.27824047713E+00 -0.20924783790E+00  0.59954364177E+02  0.60416106398E+02  0.74470750000E+01 0.  1.
        -31    1    1    2    0    0 -0.27824047713E+00  0.20924783790E+00  0.59601763482E+02  0.60066216283E+02  0.74470750000E+01 0. -1.
<mgrwt>
<rscale>  0 0.14910480E+02</rscale>
<asrwt>0</asrwt>
<pdfrwt beam="2">  1        2 0.98361941E+00 0.14910480E+02</pdfrwt>
<pdfrwt beam="1">  1       -2 0.99623214E+00 0.14910480E+02</pdfrwt>
<totfact>-0.39828949E-13</totfact>
</mgrwt>
</event>
<event>
 4    1 -0.5010510E-019  0.1494504E+02  0.7818608E-02  0.1869750E+00
          2   -1    0    0  501    0  0.00000000000E+00  0.00000000000E+00  0.11884167631E+03  0.11884167633E+03  0.25500000000E-02 0.  1.
         -2   -1    0    0    0  501 -0.00000000000E+00 -0.00000000000E+00 -0.46985346245E+00  0.46986038210E+00  0.25500000000E-02 0. -1.
         31    1    1    2    0    0  0.47775636071E+00  0.29398863244E+00  0.61220977289E+02  0.61674805769E+02  0.74470750000E+01 0.  1.
        -31    1    1    2    0    0 -0.47775636071E+00 -0.29398863244E+00  0.57150845555E+02  0.57636730946E+02  0.74470750000E+01 0. -1.
<mgrwt>
<rscale>  0 0.14945044E+02</rscale>
<asrwt>0</asrwt>
<pdfrwt beam="1">  1        2 0.98655126E+00 0.14945044E+02</pdfrwt>
<pdfrwt beam="2">  1       -2 0.99788189E+00 0.14945044E+02</pdfrwt>
<totfact>-0.16964368E-13</totfact>
</mgrwt>
</event>
<event>
 4    1 -0.5010510E-019  0.1498245E+02  0.7818608E-02  0.1868605E+00
         -2   -1    0    0    0  501 -0.00000000000E+00  0.00000000000E+00  0.11984664139E+03  0.11984664141E+03  0.25500000000E-02 0. -1.
          2   -1    0    0  501    0  0.00000000000E+00 -0.00000000000E+00 -0.46824844474E+00  0.46825538811E+00  0.25500000000E-02 0.  1.
         31    1    1    2    0    0 -0.77965653170E-01 -0.35519005109E+00  0.65520267160E+02  0.65943131359E+02  0.74470750000E+01 0. -1.
        -31    1    1    2    0    0  0.77965653170E-01  0.35519005109E+00  0.53858125782E+02  0.54371765443E+02  0.74470750000E+01 0.  1.
<mgrwt>
<rscale>  0 0.14982446E+02</rscale>
<asrwt>0</asrwt>
<pdfrwt beam="2">  1        2 0.99451929E+00 0.14982446E+02</pdfrwt>
<pdfrwt beam="1">  1       -2 0.99484775E+00 0.14982446E+02</pdfrwt>
<totfact>-0.12521490E-13</totfact>
</mgrwt>
</event>
<event>
 4    1  0.5010510E-019  0.1495130E+02  0.7818608E-02  0.1869558E+00
          2   -1    0    0  501    0  0.00000000000E+00  0.00000000000E+00  0.12039478158E+03  0.12039478161E+03  0.25500000000E-02 0.  1.
         -2   -1    0    0    0  501 -0.00000000000E+00 -0.00000000000E+00 -0.46418053057E+00  0.46418753480E+00  0.25500000000E-02 0. -1.
         31    1    1    2    0    0 -0.62782737436E+00 -0.67853305499E-01  0.61309234695E+02  0.61763095423E+02  0.74470750000E+01 0.  1.
        -31    1    1    2    0    0  0.62782737436E+00  0.67853305499E-01  0.58621366359E+02  0.59095873724E+02  0.74470750000E+01 0. -1.
<mgrwt>
<rscale>  0 0.14951299E+02</rscale>
<asrwt>0</asrwt>
<pdfrwt beam="1">  1        2 0.99934652E+00 0.14951299E+02</pdfrwt>
<pdfrwt beam="2">  1       -2 0.98593017E+00 0.14951299E+02</pdfrwt>
<totfact> 0.76047449E-14</totfact>
</mgrwt>
</event>
<event>
 4    1  0.5010510E-019  0.1491159E+02  0.7818608E-02  0.1870779E+00
         -2   -1    0    0    0  501 -0.00000000000E+00  0.00000000000E+00  0.11868776314E+03  0.11868776316E+03  0.25500000000E-02 0. -1.
          2   -1    0    0  501    0  0.00000000000E+00 -0.00000000000E+00 -0.46835858749E+00  0.46836552923E+00  0.25500000000E-02 0.  1.
         31    1    1    2    0    0  0.34132686999E+00  0.11579077789E+00  0.59135854105E+02  0.59604010589E+02  0.74470750000E+01 0.  1.
        -31    1    1    2    0    0 -0.34132686999E+00 -0.11579077789E+00  0.59083550445E+02  0.59552118104E+02  0.74470750000E+01 0. -1.
<mgrwt>
<rscale>  0 0.14911586E+02</rscale>
<asrwt>0</asrwt>
<pdfrwt beam="2">  1        2 0.99471450E+00 0.14911586E+02</pdfrwt>
<pdfrwt beam="1">  1       -2 0.98526624E+00 0.14911586E+02</pdfrwt>
<totfact> 0.46182271E-13</totfact>
</mgrwt>
</event>
<event>
 4    1  0.5010510E-019  0.1491999E+02  0.7818608E-02  0.1870520E+00
         -2   -1    0    0    0  501 -0.00000000000E+00  0.00000000000E+00  0.11884997354E+03  0.11884997357E+03  0.25500000000E-02 0.  1.
          2   -1    0    0  501    0  0.00000000000E+00 -0.00000000000E+00 -0.46824685057E+00  0.46825379397E+00  0.25500000000E-02 0. -1.
         31    1    1    2    0    0 -0.96662664513E-01  0.34835012150E+00  0.57200794158E+02  0.57684664078E+02  0.74470750000E+01 0. -1.
        -31    1    1    2    0    0  0.96662664513E-01 -0.34835012150E+00  0.61180932532E+02  0.61633563283E+02  0.74470750000E+01 0.  1.
<mgrwt>
<rscale>  0 0.14919992E+02</rscale>
<asrwt>0</asrwt>
<pdfrwt beam="2">  1        2 0.99448346E+00 0.14919992E+02</pdfrwt>
<pdfrwt beam="1">  1       -2 0.98660659E+00 0.14919992E+02</pdfrwt>
<totfact> 0.30198352E-13</totfact>
</mgrwt>
</event>
<event>
 4    1 -0.5010510E-019  0.1489832E+02  0.7818608E-02  0.1871187E+00
         -2   -1    0    0    0  501 -0.00000000000E+00  0.00000000000E+00  0.12004177593E+03  0.12004177595E+03  0.25500000000E-02 0. -1.
          2   -1    0    0  501    0  0.00000000000E+00 -0.00000000000E+00 -0.46225197235E+00  0.46225900580E+00  0.25500000000E-02 0.  1.
         31    1    1    2    0    0  0.14058980609E+00 -0.35860460053E-01  0.58981097723E+02  0.59449557325E+02  0.74470750000E+01 0. -1.
        -31    1    1    2    0    0 -0.14058980609E+00  0.35860460053E-01  0.60598426230E+02  0.61054477633E+02  0.74470750000E+01 0. -1.
<mgrwt>
<rscale>  0 0.14898318E+02</rscale>
<asrwt>0</asrwt>
<pdfrwt beam="2">  1        2 0.98183856E+00 0.14898318E+02</pdfrwt>
<pdfrwt beam="1">  1       -2 0.99641167E+00 0.14898318E+02</pdfrwt>
<totfact>-0.52482609E-13</totfact>
</mgrwt>
</event>
<event>
 4    1 -0.5010510E-019  0.1496183E+02  0.7818608E-02  0.1869235E+00
          2   -1    0    0  501    0  0.00000000000E+00  0.00000000000E+00  0.11963677669E+03  0.11963677672E+03  0.25500000000E-02 0.  1.
         -2   -1    0    0    0  501 -0.00000000000E+00 -0.00000000000E+00 -0.46778012010E+00  0.46778707043E+00  0.25500000000E-02 0. -1.
         31    1    1    2    0    0  0.30515435553E+00  0.64190335288E+00  0.59635035284E+02  0.60102425230E+02  0.74470750000E+01 0. -1.
        -31    1    1    2    0    0 -0.30515435553E+00 -0.64190335288E+00  0.59533961288E+02  0.60002138560E+02  0.74470750000E+01 0.  1.
<mgrwt>
<rscale>  0 0.14961835E+02</rscale>
<asrwt>0</asrwt>
<pdfrwt beam="1">  1        2 0.99310857E+00 0.14961835E+02</pdfrwt>
<pdfrwt beam="2">  1       -2 0.99352171E+00 0.14961835E+02</pdfrwt>
<totfact>-0.13095578E-13</totfact>
</mgrwt>
</event>
<event>
 4    1 -0.5010510E-019  0.1491718E+02  0.7818608E-02  0.1870606E+00
          2   -1    0    0  501    0  0.00000000000E+00  0.00000000000E+00  0.11879660559E+03  0.11879660562E+03  0.25500000000E-02 0. -1.
         -2   -1    0    0    0  501 -0.00000000000E+00 -0.00000000000E+00 -0.46828056423E+00  0.46828750713E+00  0.25500000000E-02 0.  1.
         31    1    1    2    0    0 -0.40085881120E+00 -0.63243482866E-01  0.58497943107E+02  0.58971458871E+02  0.74470750000E+01 0. -1.
        -31    1    1    2    0    0  0.40085881120E+00  0.63243482866E-01  0.59830381918E+02  0.60293434253E+02  0.74470750000E+01 0. -1.
<mgrwt>
<rscale>  0 0.14917179E+02</rscale>
<asrwt>0</asrwt>
<pdfrwt beam="1">  1        2 0.98616558E+00 0.14917179E+02</pdfrwt>
<pdfrwt beam="2">  1       -2 0.99455303E+00 0.14917179E+02</pdfrwt>
<totfact>-0.28926510E-13</totfact>
</mgrwt>
</event>
<event>
 4    1 -0.5010510E-019  0.1495741E+02  0.7818608E-02  0.1869371E+00
          2   -1    0    0  501    0  0.00000000000E+00  0.00000000000E+00  0.11974032170E+03  0.11974032173E+03  0.25500000000E-02 0. -1.
         -2   -1    0    0    0  501 -0.00000000000E+00 -0.00000000000E+00 -0.46709905602E+00  0.46710601649E+00  0.25500000000E-02 0.  1.
         31    1    1    2    0    0  0.51408568800E+00  0.20798721347E+00  0.56376639334E+02  0.56869077111E+02  0.74470750000E+01 0. -1.
        -31    1    1    2    0    0 -0.51408568800E+00 -0.20798721347E+00  0.62896583314E+02  0.63338350637E+02  0.74470750000E+01 0. -1.
<mgrwt>
<rscale>  0 0.14957408E+02</rscale>
<asrwt>0</asrwt>
<pdfrwt beam="1">  1        2 0.99395912E+00 0.14957408E+02</pdfrwt>
<pdfrwt beam="2">  1       -2 0.99208418E+00 0.14957408E+02</pdfrwt>
<totfact>-0.89336943E-14</totfact>
</mgrwt>
</event>
<event>
 4    1  0.5010510E-019  0.1496434E+02  0.7818608E-02  0.1869159E+00
          2   -1    0    0  501    0  0.00000000000E+00  0.00000000000E+00  0.12026258591E+03  0.12026258594E+03  0.25500000000E-02 0. -1.
         -2   -1    0    0    0  501 -0.00000000000E+00 -0.00000000000E+00 -0.46550167066E+00  0.46550865500E+00  0.25500000000E-02 0.  1.
         31    1    1    2    0    0 -0.67801604737E+00  0.25243490052E+00  0.60079427997E+02  0.60543538249E+02  0.74470750000E+01 0.  1.
        -31    1    1    2    0    0  0.67801604737E+00 -0.25243490052E+00  0.59717656242E+02  0.60184556343E+02  0.74470750000E+01 0.  1.
<mgrwt>
<rscale>  0 0.14964339E+02</rscale>
<asrwt>0</asrwt>
<pdfrwt beam="1">  1        2 0.99826436E+00 0.14964339E+02</pdfrwt>
<pdfrwt beam="2">  1       -2 0.98872127E+00 0.14964339E+02</pdfrwt>
<totfact> 0.45611173E-14</totfact>
</mgrwt>
</event>
<event>
 4    1 -0.5010510E-019  0.1497848E+02  0.7818608E-02  0.1868726E+00
          2   -1    0    0  501    0  0.00000000000E+00  0.00000000000E+00  0.11957067314E+03  0.11957067317E+03  0.25500000000E-02 0. -1.
         -2   -1    0    0    0  501 -0.00000000000E+00 -0.00000000000E+00 -0.46908066182E+00  0.46908759288E+00  0.25500000000E-02 0.  1.
         31    1    1    2    0    0 -0.65421372070E+00 -0.19322569035E+00  0.56300860640E+02  0.56795344586E+02  0.74470750000E+01 0. -1.
        -31    1    1    2    0    0  0.65421372070E+00  0.19322569035E+00  0.62800731840E+02  0.63244416176E+02  0.74470750000E+01 0. -1.
<mgrwt>
<rscale>  0 0.14978479E+02</rscale>
<asrwt>0</asrwt>
<pdfrwt beam="1">  1        2 0.99257273E+00 0.14978479E+02</pdfrwt>
<pdfrwt beam="2">  1       -2 0.99627096E+00 0.14978479E+02</pdfrwt>
<totfact>-0.13194641E-13</totfact>
</mgrwt>
</event>
<event>
 4    1 -0.5010510E-019  0.1496966E+02  0.7818608E-02  0.1868996E+00
         -2   -1    0    0    0  501 -0.00000000000E+00  0.00000000000E+00  0.11967335616E+03  0.11967335619E+03  0.25500000000E-02 0. -1.
          2   -1    0    0  501    0  0.00000000000E+00 -0.00000000000E+00 -0.46812647497E+00  0.46813342016E+00  0.25500000000E-02 0.  1.
         31    1    1    2    0    0  0.26081445752E-01  0.33186815480E-01  0.53586161737E+02  0.54101177782E+02  0.74470750000E+01 0.  1.
        -31    1    1    2    0    0 -0.26081445752E-01 -0.33186815480E-01  0.65619067951E+02  0.66040311829E+02  0.74470750000E+01 0. -1.
<mgrwt>
<rscale>  0 0.14969661E+02</rscale>
<asrwt>0</asrwt>
<pdfrwt beam="2">  1        2 0.99425565E+00 0.14969661E+02</pdfrwt>
<pdfrwt beam="1">  1       -2 0.99341389E+00 0.14969661E+02</pdfrwt>
<totfact>-0.11825297E-13</totfact>
</mgrwt>
</event>
<event>
 4    1 -0.5010510E-019  0.1496288E+02  0.7818608E-02  0.1869203E+00
         -2   -1    0    0    0  501 -0.00000000000E+00  0.00000000000E+00  0.12020346579E+03  0.12020346581E+03  0.25500000000E-02 0. -1.
          2   -1    0    0  501    0  0.00000000000E+00 -0.00000000000E+00 -0.46564001338E+00  0.46564699565E+00  0.25500000000E-02 0.  1.
         31    1    1    2    0    0  0.50503214523E+00 -0.48748561938E+00  0.58718741980E+02  0.59193262162E+02  0.74470750000E+01 0. -1.
        -31    1    1    2    0    0 -0.50503214523E+00  0.48748561938E+00  0.61019083792E+02  0.61475850646E+02  0.74470750000E+01 0. -1.
<mgrwt>
<rscale>  0 0.14962883E+02</rscale>
<asrwt>0</asrwt>
<pdfrwt beam="2">  1        2 0.98901209E+00 0.14962883E+02</pdfrwt>
<pdfrwt beam="1">  1       -2 0.99777665E+00 0.14962883E+02</pdfrwt>
<totfact>-0.12778845E-13</totfact>
</mgrwt>
</event>
<event>
 4    1 -0.5010510E-019  0.1497171E+02  0.7818608E-02  0.1868933E+00
         -2   -1    0    0    0  501 -0.00000000000E+00  0.00000000000E+00  0.11950853572E+03  0.11950853574E+03  0.25500000000E-02 0.  1.
          2   -1    0    0  501    0  0.00000000000E+00 -0.00000000000E+00 -0.46890076644E+00  0.46890770016E+00  0.25500000000E-02 0. -1.
         31    1    1    2    0    0  0.68567828149E+00 -0.33003828000E+00  0.59460094266E+02  0.59929465342E+02  0.74470750000E+01 0. -1.
        -31    1    1    2    0    0 -0.68567828149E+00  0.33003828000E+00  0.59579540683E+02  0.60047978101E+02  0.74470750000E+01 0.  1.
<mgrwt>
<rscale>  0 0.14971715E+02</rscale>
<asrwt>0</asrwt>
<pdfrwt beam="2">  1        2 0.99588836E+00 0.14971715E+02</pdfrwt>
<pdfrwt beam="1">  1       -2 0.99205745E+00 0.14971715E+02</pdfrwt>
<totfact>-0.72382887E-14</totfact>
</mgrwt>
</event>
<event>
 4    1 -0.5010510E-019  0.1493827E+02  0.7818608E-02  0.1869958E+00
         -2   -1    0    0    0  501 -0.00000000000E+00  0.00000000000E+00  0.12026529641E+03  0.12026529644E+03  0.25500000000E-02 0.  1.
          2   -1    0    0  501    0  0.00000000000E+00 -0.00000000000E+00 -0.46387080499E+00  0.46387781389E+00  0.25500000000E-02 0. -1.
         31    1    1    2    0    0 -0.56423369327E+00 -0.91582143147E-01  0.59512145930E+02  0.59979006212E+02  0.74470750000E+01 0.  1.
        -31    1    1    2    0    0  0.56423369327E+00  0.91582143147E-01  0.60289279673E+02  0.60750168037E+02  0.74470750000E+01 0.  1.
<mgrwt>
<rscale>  0 0.14938271E+02</rscale>
<asrwt>0</asrwt>
<pdfrwt beam="2">  1        2 0.98527077E+00 0.14938271E+02</pdfrwt>
<pdfrwt beam="1">  1       -2 0.99827328E+00 0.14938271E+02</pdfrwt>
<totfact>-0.17501034E-13</totfact>
</mgrwt>
</event>
<event>
 4    1  0.5010510E-019  0.1490497E+02  0.7818608E-02  0.1870982E+00
          2   -1    0    0  501    0  0.00000000000E+00  0.00000000000E+00  0.11926007660E+03  0.11926007662E+03  0.25500000000E-02 0.  1.
         -2   -1    0    0    0  501 -0.00000000000E+00 -0.00000000000E+00 -0.46569742691E+00  0.46570440832E+00  0.25500000000E-02 0. -1.
         31    1    1    2    0    0  0.14503192572E+00 -0.48819240479E-01  0.57476291989E+02  0.57956936465E+02  0.74470750000E+01 0. -1.
        -31    1    1    2    0    0 -0.14503192572E+00  0.48819240479E-01  0.61318087180E+02  0.61768844567E+02  0.74470750000E+01 0.  1.
<mgrwt>
<rscale>  0 0.14904970E+02</rscale>
<asrwt>0</asrwt>
<pdfrwt beam="1">  1        2 0.98997653E+00 0.14904970E+02</pdfrwt>
<pdfrwt beam="2">  1       -2 0.98910337E+00 0.14904970E+02</pdfrwt>
<totfact> 0.97737281E-14</totfact>
</mgrwt>
</event>
<event>
 4    1 -0.5010510E-019  0.1492000E+02  0.7818608E-02  0.1870520E+00
         -2   -1    0    0    0  501 -0.00000000000E+00  0.00000000000E+00  0.12010390401E+03  0.12010390404E+03  0.25500000000E-02 0. -1.
          2   -1    0    0  501    0  0.00000000000E+00 -0.00000000000E+00 -0.46335839730E+00  0.46336541395E+00  0.25500000000E-02 0.  1.
         31    1    1    2    0    0  0.39256760882E+00 -0.16060217490E+00  0.60732688598E+02  0.61189037358E+02  0.74470750000E+01 0. -1.
        -31    1    1    2    0    0 -0.39256760882E+00  0.16060217490E+00  0.58907857013E+02  0.59378232091E+02  0.74470750000E+01 0. -1.
<mgrwt>
<rscale>  0 0.14919997E+02</rscale>
<asrwt>0</asrwt>
<pdfrwt beam="2">  1        2 0.98418152E+00 0.14919997E+02</pdfrwt>
<pdfrwt beam="1">  1       -2 0.99693454E+00 0.14919997E+02</pdfrwt>
<totfact>-0.32249477E-13</totfact>
</mgrwt>
</event>
<event>
 4    1  0.5010510E-019  0.1490705E+02  0.7818608E-02  0.1870918E+00
          2   -1    0    0  501    0  0.00000000000E+00  0.00000000000E+00  0.11942791799E+03  0.11942791801E+03  0.25500000000E-02 0.  1.
         -2   -1    0    0    0  501 -0.00000000000E+00 -0.00000000000E+00 -0.46517253687E+00  0.46517952616E+00  0.25500000000E-02 0. -1.
         31    1    1    2    0    0 -0.39801327733E-01  0.28525290566E+00  0.60402913862E+02  0.60860938889E+02  0.74470750000E+01 0. -1.
        -31    1    1    2    0    0  0.39801327733E-01 -0.28525290566E+00  0.58559831588E+02  0.59032158652E+02  0.74470750000E+01 0.  1.
<mgrwt>
<rscale>  0 0.14907046E+02</rscale>
<asrwt>0</asrwt>
<pdfrwt beam="1">  1        2 0.99136002E+00 0.14907046E+02</pdfrwt>
<pdfrwt beam="2">  1       -2 0.98799829E+00 0.14907046E+02</pdfrwt>
<totfact> 0.20167388E-13</totfact>
</mgrwt>
</event>
<event>
 4    1 -0.5010510E-019  0.1495611E+02  0.7818608E-02  0.1869411E+00
          2   -1    0    0  501    0  0.00000000000E+00  0.00000000000E+00  0.11956110766E+03  0.11956110769E+03  0.25500000000E-02 0.  1.
         -2   -1    0    0    0  501 -0.00000000000E+00 -0.00000000000E+00 -0.46771819007E+00  0.46772514132E+00  0.25500000000E-02 0. -1.
         31    1    1    2    0    0 -0.18188750666E+00 -0.23963332753E+00  0.54652577499E+02  0.55158441426E+02  0.74470750000E+01 0. -1.
        -31    1    1    2    0    0  0.18188750666E+00  0.23963332753E+00  0.64440811972E+02  0.64870391403E+02  0.74470750000E+01 0.  1.
<mgrwt>
<rscale>  0 0.14956112E+02</rscale>
<asrwt>0</asrwt>
<pdfrwt beam="1">  1        2 0.99248237E+00 0.14956112E+02</pdfrwt>
<pdfrwt beam="2">  1       -2 0.99338825E+00 0.14956112E+02</pdfrwt>
<totfact>-0.13473508E-13</totfact>
</mgrwt>
</event>
<event>
 4    1 -0.5010510E-019  0.1501582E+02  0.7818608E-02  0.1867586E+00
         -2   -1    0    0    0  501 -0.00000000000E+00  0.00000000000E+00  0.12017504920E+03  0.12017504923E+03  0.25500000000E-02 0.  1.
          2   -1    0    0  501    0  0.00000000000E+00 -0.00000000000E+00 -0.46905160522E+00  0.46905853671E+00  0.25500000000E-02 0. -1.
         31    1    1    2    0    0 -0.23496837383E+00  0.73500121392E+00  0.64357723614E+02  0.64791750646E+02  0.74470750000E+01 0.  1.
        -31    1    1    2    0    0  0.23496837383E+00 -0.73500121392E+00  0.55348273981E+02  0.55852357118E+02  0.74470750000E+01 0. -1.
<mgrwt>
<rscale>  0 0.15015821E+02</rscale>
<asrwt>0</asrwt>
<pdfrwt beam="2">  1        2 0.99622907E+00 0.15015821E+02</pdfrwt>
<pdfrwt beam="1">  1       -2 0.99756989E+00 0.15015821E+02</pdfrwt>
<totfact>-0.70475734E-14</totfact>
</mgrwt>
</event>
<event>
 4    1 -0.5010510E-019  0.1491275E+02  0.7818608E-02  0.1870743E+00
         -2   -1    0    0    0  501 -0.00000000000E+00  0.00000000000E+00  0.12013123044E+03  0.12013123047E+03  0.25500000000E-02 0.  1.
          2   -1    0    0  501    0  0.00000000000E+00 -0.00000000000E+00 -0.46280290942E+00  0.46280993450E+00  0.25500000000E-02 0. -1.
         31    1    1    2    0    0 -0.12727904553E+00  0.30996829913E+00  0.58522735415E+02  0.58995608030E+02  0.74470750000E+01 0. -1.
        -31    1    1    2    0    0  0.12727904553E+00 -0.30996829913E+00  0.61145692113E+02  0.61598432370E+02  0.74470750000E+01 0.  1.
<mgrwt>
<rscale>  0 0.14912747E+02</rscale>
<asrwt>0</asrwt>
<pdfrwt beam="2">  1        2 0.98300706E+00 0.14912747E+02</pdfrwt>
<pdfrwt beam="1">  1       -2 0.99715590E+00 0.14912747E+02</pdfrwt>
<totfact>-0.37391735E-13</totfact>
</mgrwt>
</event>
<event>
 4    1  0.5010510E-019  0.1491449E+02  0.7818608E-02  0.1870689E+00
          2   -1    0    0  501    0  0.00000000000E+00  0.00000000000E+00  0.11978600279E+03  0.11978600281E+03  0.25500000000E-02 0. -1.
         -2   -1    0    0    0  501 -0.00000000000E+00 -0.00000000000E+00 -0.46424515599E+00  0.46425215924E+00  0.25500000000E-02 0.  1.
         31    1    1    2    0    0  0.24842584761E+00 -0.19923210725E+00  0.61466612239E+02  0.61916918165E+02  0.74470750000E+01 0. -1.
        -31    1    1    2    0    0 -0.24842584761E+00  0.19923210725E+00  0.57855145391E+02  0.58333336807E+02  0.74470750000E+01 0.  1.
<mgrwt>
<rscale>  0 0.14914489E+02</rscale>
<asrwt>0</asrwt>
<pdfrwt beam="1">  1        2 0.99431324E+00 0.14914489E+02</pdfrwt>
<pdfrwt beam="2">  1       -2 0.98604766E+00 0.14914489E+02</pdfrwt>
<totfact> 0.37437849E-13</totfact>
</mgrwt>
</event>
<event>
 4    1 -0.5010510E-019  0.1500750E+02  0.7818608E-02  0.1867840E+00
         -2   -1    0    0    0  501 -0.00000000000E+00  0.00000000000E+00  0.11979449248E+03  0.11979449250E+03  0.25500000000E-02 0.  1.
          2   -1    0    0  501    0  0.00000000000E+00 -0.00000000000E+00 -0.47002052361E+00  0.47002744081E+00  0.25500000000E-02 0. -1.
         31    1    1    2    0    0 -0.71021161331E+00  0.24281580628E+00  0.55391630666E+02  0.55895035861E+02  0.74470750000E+01 0. -1.
        -31    1    1    2    0    0  0.71021161331E+00 -0.24281580628E+00  0.63932841288E+02  0.64369484084E+02  0.74470750000E+01 0. -1.
<mgrwt>
<rscale>  0 0.15007503E+02</rscale>
<asrwt>0</asrwt>
<pdfrwt beam="2">  1        2 0.99826658E+00 0.15007503E+02</pdfrwt>
<pdfrwt beam="1">  1       -2 0.99443120E+00 0.15007503E+02</pdfrwt>
<totfact>-0.58367978E-14</totfact>
</mgrwt>
</event>
<event>
 4    1 -0.5010510E-019  0.1496311E+02  0.7818608E-02  0.1869196E+00
         -2   -1    0    0    0  501 -0.00000000000E+00  0.00000000000E+00  0.11959646957E+03  0.11959646960E+03  0.25500000000E-02 0. -1.
          2   -1    0    0  501    0  0.00000000000E+00 -0.00000000000E+00 -0.46801743769E+00  0.46802438450E+00  0.25500000000E-02 0.  1.
         31    1    1    2    0    0 -0.67433153965E+00 -0.18347433991E+00  0.60866494828E+02  0.61324363058E+02  0.74470750000E+01 0. -1.
        -31    1    1    2    0    0  0.67433153965E+00  0.18347433991E+00  0.58261957304E+02  0.58740130923E+02  0.74470750000E+01 0. -1.
<mgrwt>
<rscale>  0 0.14963108E+02</rscale>
<asrwt>0</asrwt>
<pdfrwt beam="2">  1        2 0.99402248E+00 0.14963108E+02</pdfrwt>
<pdfrwt beam="1">  1       -2 0.99277724E+00 0.14963108E+02</pdfrwt>
<totfact>-0.10821278E-13</totfact>
</mgrwt>
</event>
<event>
 4    1 -0.5010510E-019  0.1494143E+02  0.7818608E-02  0.1869861E+00
         -2   -1    0    0    0  501 -0.00000000000E+00  0.00000000000E+00  0.11940631713E+03  0.11940631715E+03  0.25500000000E-02 0.  1.
          2   -1    0    0  501    0  0.00000000000E+00 -0.00000000000E+00 -0.46740524767E+00  0.46741220358E+00  0.25500000000E-02 0. -1.
         31    1    1    2    0    0  0.21805368812E+00  0.55191245426E+00  0.59294241388E+02  0.59763016512E+02  0.74470750000E+01 0.  1.
        -31    1    1    2    0    0 -0.21805368812E+00 -0.55191245426E+00  0.59644670491E+02  0.60110712846E+02  0.74470750000E+01 0. -1.
<mgrwt>
<rscale>  0 0.14941427E+02</rscale>
<asrwt>0</asrwt>
<pdfrwt beam="2">  1        2 0.99272117E+00 0.14941427E+02</pdfrwt>
<pdfrwt beam="1">  1       -2 0.99119987E+00 0.14941427E+02</pdfrwt>
<totfact>-0.60467494E-14</totfact>
</mgrwt>
</event>
<event>
 4    1  0.5010510E-019  0.1490216E+02  0.7818608E-02  0.1871069E+00
          2   -1    0    0  501    0  0.00000000000E+00  0.00000000000E+00  0.12013697452E+03  0.12013697454E+03  0.25500000000E-02 0. -1.
         -2   -1    0    0    0  501 -0.00000000000E+00 -0.00000000000E+00 -0.46212382598E+00  0.46213086138E+00  0.25500000000E-02 0.  1.
         31    1    1    2    0    0 -0.32874242788E-01  0.22690160177E+00  0.59155853374E+02  0.59623204204E+02  0.74470750000E+01 0. -1.
        -31    1    1    2    0    0  0.32874242788E-01 -0.22690160177E+00  0.60518997317E+02  0.60975901201E+02  0.74470750000E+01 0. -1.
<mgrwt>
<rscale>  0 0.14902159E+02</rscale>
<asrwt>0</asrwt>
<pdfrwt beam="1">  1        2 0.99719778E+00 0.14902159E+02</pdfrwt>
<pdfrwt beam="2">  1       -2 0.98157040E+00 0.14902159E+02</pdfrwt>
<totfact> 0.75194625E-13</totfact>
</mgrwt>
</event>
<event>
 4    1  0.5010510E-019  0.1491764E+02  0.7818608E-02  0.1870592E+00
         -2   -1    0    0    0  501 -0.00000000000E+00  0.00000000000E+00  0.11851978271E+03  0.11851978273E+03  0.25500000000E-02 0.  1.
          2   -1    0    0  501    0  0.00000000000E+00 -0.00000000000E+00 -0.46940331767E+00  0.46941024397E+00  0.25500000000E-02 0. -1.
         31    1    1    2    0    0  0.27034252864E+00  0.18346859334E+00  0.56940292233E+02  0.57426148673E+02  0.74470750000E+01 0. -1.
        -31    1    1    2    0    0 -0.27034252864E+00 -0.18346859334E+00  0.61110087155E+02  0.61563044304E+02  0.74470750000E+01 0.  1.
<mgrwt>
<rscale>  0 0.14917640E+02</rscale>
<asrwt>0</asrwt>
<pdfrwt beam="2">  1        2 0.99691899E+00 0.14917640E+02</pdfrwt>
<pdfrwt beam="1">  1       -2 0.98388590E+00 0.14917640E+02</pdfrwt>
<totfact> 0.48773710E-13</totfact>
</mgrwt>
</event>
<event>
 4    1 -0.5010510E-019  0.1492115E+02  0.7818608E-02  0.1870484E+00
         -2   -1    0    0    0  501 -0.00000000000E+00  0.00000000000E+00  0.11995596688E+03  0.11995596691E+03  0.25500000000E-02 0. -1.
          2   -1    0    0  501    0  0.00000000000E+00 -0.00000000000E+00 -0.46400139759E+00  0.46400840452E+00  0.25500000000E-02 0.  1.
         31    1    1    2    0    0 -0.16609468735E+00 -0.41650021761E+00  0.59639566336E+02  0.60104391343E+02  0.74470750000E+01 0.  1.
        -31    1    1    2    0    0  0.16609468735E+00  0.41650021761E+00  0.59852399148E+02  0.60315583971E+02  0.74470750000E+01 0. -1.
<mgrwt>
<rscale>  0 0.14921147E+02</rscale>
<asrwt>0</asrwt>
<pdfrwt beam="2">  1        2 0.98553731E+00 0.14921147E+02</pdfrwt>
<pdfrwt beam="1">  1       -2 0.99571661E+00 0.14921147E+02</pdfrwt>
<totfact>-0.30702018E-13</totfact>
</mgrwt>
</event>
<event>
 4    1  0.5010510E-019  0.1490782E+02  0.7818608E-02  0.1870895E+00
          2   -1    0    0  501    0  0.00000000000E+00  0.00000000000E+00  0.11996289513E+03  0.11996289515E+03  0.25500000000E-02 0. -1.
         -2   -1    0    0    0  501 -0.00000000000E+00 -0.00000000000E+00 -0.46314585417E+00  0.46315287404E+00  0.25500000000E-02 0.  1.
         31    1    1    2    0    0  0.94481161315E-01  0.12196928120E+00  0.57493616423E+02  0.57974120594E+02  0.74470750000E+01 0.  1.
        -31    1    1    2    0    0 -0.94481161315E-01 -0.12196928120E+00  0.62006132850E+02  0.62451927434E+02  0.74470750000E+01 0. -1.
<mgrwt>
<rscale>  0 0.14907816E+02</rscale>
<asrwt>0</asrwt>
<pdfrwt beam="1">  1        2 0.99576682E+00 0.14907816E+02</pdfrwt>
<pdfrwt beam="2">  1       -2 0.98372738E+00 0.14907816E+02</pdfrwt>
<totfact> 0.61628492E-13</totfact>
</mgrwt>
</event>
<event>
 4    1 -0.5010510E-019  0.1494154E+02  0.7818608E-02  0.1869858E+00
         -2   -1    0    0    0  501 -0.00000000000E+00  0.00000000000E+00  0.11981556377E+03  0.11981556380E+03  0.25500000000E-02 0. -1.
          2   -1    0    0  501    0  0.00000000000E+00 -0.00000000000E+00 -0.46581577746E+00  0.46582275709E+00  0.25500000000E-02 0.  1.
         31    1    1    2    0    0  0.32569754057E-01  0.36485414087E+00  0.63444674978E+02  0.63881295294E+02  0.74470750000E+01 0.  1.
        -31    1    1    2    0    0 -0.32569754057E-01 -0.36485414087E+00  0.55905073014E+02  0.56400091260E+02  0.74470750000E+01 0.  1.
<mgrwt>
<rscale>  0 0.14941540E+02</rscale>
<asrwt>0</asrwt>
<pdfrwt beam="2">  1        2 0.98937160E+00 0.14941540E+02</pdfrwt>
<pdfrwt beam="1">  1       -2 0.99457066E+00 0.14941540E+02</pdfrwt>
<totfact>-0.19044300E-13</totfact>
</mgrwt>
</event>
<event>
 4    1 -0.5010510E-019  0.1500921E+02  0.7818608E-02  0.1867788E+00
          2   -1    0    0  501    0  0.00000000000E+00  0.00000000000E+00  0.12040090226E+03  0.12040090228E+03  0.25500000000E-02 0. -1.
         -2   -1    0    0    0  501 -0.00000000000E+00 -0.00000000000E+00 -0.46775969206E+00  0.46776664269E+00  0.25500000000E-02 0.  1.
         31    1    1    2    0    0 -0.12966382981E+00 -0.40775453949E+00  0.53340061222E+02  0.53859113747E+02  0.74470750000E+01 0.  1.
        -31    1    1    2    0    0  0.12966382981E+00  0.40775453949E+00  0.66593081343E+02  0.67009555179E+02  0.74470750000E+01 0. -1.
<mgrwt>
<rscale>  0 0.15009212E+02</rscale>
<asrwt>0</asrwt>
<pdfrwt beam="1">  1        2 0.99942672E+00 0.15009212E+02</pdfrwt>
<pdfrwt beam="2">  1       -2 0.99350305E+00 0.15009212E+02</pdfrwt>
<totfact>-0.20555277E-14</totfact>
</mgrwt>
</event>
<event>
 4    1 -0.5010510E-019  0.1497352E+02  0.7818608E-02  0.1868878E+00
          2   -1    0    0  501    0  0.00000000000E+00  0.00000000000E+00  0.11939515508E+03  0.11939515511E+03  0.25500000000E-02 0.  1.
         -2   -1    0    0    0  501 -0.00000000000E+00 -0.00000000000E+00 -0.46945914023E+00  0.46946606570E+00  0.25500000000E-02 0. -1.
         31    1    1    2    0    0 -0.46025838381E+00  0.67834626305E-01  0.64372780175E+02  0.64803782242E+02  0.74470750000E+01 0.  1.
        -31    1    1    2    0    0  0.46025838381E+00 -0.67834626305E-01  0.54552915766E+02  0.55060838932E+02  0.74470750000E+01 0. -1.
<mgrwt>
<rscale>  0 0.14973518E+02</rscale>
<asrwt>0</asrwt>
<pdfrwt beam="1">  1        2 0.99112455E+00 0.14973518E+02</pdfrwt>
<pdfrwt beam="2">  1       -2 0.99706592E+00 0.14973518E+02</pdfrwt>
<totfact>-0.12777577E-13</totfact>
</mgrwt>
</event>
<event>
 4    1  0.5010510E-019  0.1491765E+02  0.7818608E-02  0.1870592E+00
         -2   -1    0    0    0  501 -0.00000000000E+00  0.00000000000E+00  0.11838222053E+03  0.11838222056E+03  0.25500000000E-02 0.  1.
          2   -1    0    0  501    0  0.00000000000E+00 -0.00000000000E+00 -0.46994928102E+00  0.46995619927E+00  0.25500000000E-02 0. -1.
         31    1    1    2    0    0  0.26914031317E-01  0.38200663450E+00  0.60300512606E+02  0.60759833772E+02  0.74470750000E+01 0. -1.
        -31    1    1    2    0    0 -0.26914031317E-01 -0.38200663450E+00  0.57611758646E+02  0.58092342988E+02  0.74470750000E+01 0. -1.
<mgrwt>
<rscale>  0 0.14917648E+02</rscale>
<asrwt>0</asrwt>
<pdfrwt beam="2">  1        2 0.99806933E+00 0.14917648E+02</pdfrwt>
<pdfrwt beam="1">  1       -2 0.98275295E+00 0.14917648E+02</pdfrwt>
<totfact> 0.44890475E-13</totfact>
</mgrwt>
</event>
<event>
 4    1  0.5010510E-019  0.1490259E+02  0.7818608E-02  0.1871056E+00
          2   -1    0    0  501    0  0.00000000000E+00  0.00000000000E+00  0.12007524429E+03  0.12007524432E+03  0.25500000000E-02 0.  1.
         -2   -1    0    0    0  501 -0.00000000000E+00 -0.00000000000E+00 -0.46238799043E+00  0.46239502181E+00  0.25500000000E-02 0. -1.
         31    1    1    2    0    0  0.23152832515E+00  0.96124593295E-01  0.59824430926E+02  0.60286684326E+02  0.74470750000E+01 0. -1.
        -31    1    1    2    0    0 -0.23152832515E+00 -0.96124593295E-01  0.59788425372E+02  0.60250955012E+02  0.74470750000E+01 0. -1.
<mgrwt>
<rscale>  0 0.14902587E+02</rscale>
<asrwt>0</asrwt>
<pdfrwt beam="1">  1        2 0.99668954E+00 0.14902587E+02</pdfrwt>
<pdfrwt beam="2">  1       -2 0.98212740E+00 0.14902587E+02</pdfrwt>
<totfact> 0.75366803E-13</totfact>
</mgrwt>
</event>
<event>
 4    1  0.5010510E-019  0.1492066E+02  0.7818608E-02  0.1870499E+00
          2   -1    0    0  501    0  0.00000000000E+00  0.00000000000E+00  0.12010686530E+03  0.12010686532E+03  0.25500000000E-02 0.  1.
         -2   -1    0    0    0  501 -0.00000000000E+00 -0.00000000000E+00 -0.46338826562E+00  0.46339528183E+00  0.25500000000E-02 0. -1.
         31    1    1    2    0    0 -0.68970790572E-01  0.87573362576E-01  0.63299136620E+02  0.63735798802E+02  0.74470750000E+01 0.  1.
        -31    1    1    2    0    0  0.68970790572E-01 -0.87573362576E-01  0.56344340410E+02  0.56834461803E+02  0.74470750000E+01 0. -1.
<mgrwt>
<rscale>  0 0.14920662E+02</rscale>
<asrwt>0</asrwt>
<pdfrwt beam="1">  1        2 0.99695927E+00 0.14920662E+02</pdfrwt>
<pdfrwt beam="2">  1       -2 0.98424481E+00 0.14920662E+02</pdfrwt>
<totfact> 0.44218492E-13</totfact>
</mgrwt>
</event>
<event>
 4    1 -0.5010510E-019  0.1491157E+02  0.7818608E-02  0.1870779E+00
         -2   -1    0    0    0  501 -0.00000000000E+00  0.00000000000E+00  0.11943028419E+03  0.11943028422E+03  0.25500000000E-02 0.  1.
          2   -1    0    0  501    0  0.00000000000E+00 -0.00000000000E+00 -0.46544586144E+00  0.46545284663E+00  0.25500000000E-02 0. -1.
         31    1    1    2    0    0 -0.76633619909E-01 -0.10089424251E+00  0.62194488486E+02  0.62638880709E+02  0.74470750000E+01 0.  1.
        -31    1    1    2    0    0  0.76633619909E-01  0.10089424251E+00  0.56770349840E+02  0.57256856352E+02  0.74470750000E+01 0. -1.
<mgrwt>
<rscale>  0 0.14911573E+02</rscale>
<asrwt>0</asrwt>
<pdfrwt beam="2">  1        2 0.98857663E+00 0.14911573E+02</pdfrwt>
<pdfrwt beam="1">  1       -2 0.99138184E+00 0.14911573E+02</pdfrwt>
<totfact>-0.10013570E-13</totfact>
</mgrwt>
</event>
<event>
 4    1 -0.5010510E-019  0.1490535E+02  0.7818608E-02  0.1870971E+00
          2   -1    0    0  501    0  0.00000000000E+00  0.00000000000E+00  0.11832326360E+03  0.11832326363E+03  0.25500000000E-02 0.  1.
         -2   -1    0    0    0  501 -0.00000000000E+00 -0.00000000000E+00 -0.46940861471E+00  0.46941554093E+00  0.25500000000E-02 0. -1.
         31    1    1    2    0    0 -0.10457811175E+00 -0.21670047402E+00  0.57652991645E+02  0.58132471712E+02  0.74470750000E+01 0. -1.
        -31    1    1    2    0    0  0.10457811175E+00  0.21670047402E+00  0.60200863340E+02  0.60660207456E+02  0.74470750000E+01 0.  1.
<mgrwt>
<rscale>  0 0.14905351E+02</rscale>
<asrwt>0</asrwt>
<pdfrwt beam="1">  1        2 0.98226099E+00 0.14905351E+02</pdfrwt>
<pdfrwt beam="2">  1       -2 0.99692366E+00 0.14905351E+02</pdfrwt>
<totfact>-0.44661936E-13</totfact>
</mgrwt>
</event>
<event>
 4    1 -0.5010510E-019  0.1492138E+02  0.7818608E-02  0.1870477E+00
         -2   -1    0    0    0  501 -0.00000000000E+00  0.00000000000E+00  0.11947159872E+03  0.11947159875E+03  0.25500000000E-02 0. -1.
          2   -1    0    0  501    0  0.00000000000E+00 -0.00000000000E+00 -0.46589738805E+00  0.46590436647E+00  0.25500000000E-02 0.  1.
         31    1    1    2    0    0  0.22375027525E+00 -0.38769391548E+00  0.59090706630E+02  0.59559809493E+02  0.74470750000E+01 0. -1.
        -31    1    1    2    0    0 -0.22375027525E+00  0.38769391548E+00  0.59914994700E+02  0.60377693618E+02  0.74470750000E+01 0. -1.
<mgrwt>
<rscale>  0 0.14921384E+02</rscale>
<asrwt>0</asrwt>
<pdfrwt beam="2">  1        2 0.98953323E+00 0.14921384E+02</pdfrwt>
<pdfrwt beam="1">  1       -2 0.99172719E+00 0.14921384E+02</pdfrwt>
<totfact>-0.10971255E-13</totfact>
</mgrwt>
</event>
<event>
 4    1 -0.5010510E-019  0.1491574E+02  0.7818608E-02  0.1870651E+00
         -2   -1    0    0    0  501 -0.00000000000E+00  0.00000000000E+00  0.11975280351E+03  0.11975280354E+03  0.25500000000E-02 0.  1.
          2   -1    0    0  501    0  0.00000000000E+00 -0.00000000000E+00 -0.46445153625E+00  0.46445853639E+00  0.25500000000E-02 0. -1.
         31    1    1    2    0    0 -0.81298022226E-01  0.28297494445E+00  0.61839417440E+02  0.62286910017E+02  0.74470750000E+01 0.  1.
        -31    1    1    2    0    0  0.81298022226E-01 -0.28297494445E+00  0.57448934535E+02  0.57930352057E+02  0.74470750000E+01 0. -1.
<mgrwt>
<rscale>  0 0.14915736E+02</rscale>
<asrwt>0</asrwt>
<pdfrwt beam="2">  1        2 0.98648325E+00 0.14915736E+02</pdfrwt>
<pdfrwt beam="1">  1       -2 0.99404043E+00 0.14915736E+02</pdfrwt>
<totfact>-0.27031581E-13</totfact>
</mgrwt>
</event>
<event>
 4    1 -0.5010510E-019  0.1494230E+02  0.7818608E-02  0.1869834E+00
          2   -1    0    0  501    0  0.00000000000E+00  0.00000000000E+00  0.11938971223E+03  0.11938971225E+03  0.25500000000E-02 0. -1.
         -2   -1    0    0    0  501 -0.00000000000E+00 -0.00000000000E+00 -0.46752486925E+00  0.46753182338E+00  0.25500000000E-02 0.  1.
         31    1    1    2    0    0 -0.27802842709E+00  0.15735356245E+00  0.55393935025E+02  0.55893192998E+02  0.74470750000E+01 0.  1.
        -31    1    1    2    0    0  0.27802842709E+00 -0.15735356245E+00  0.63528252331E+02  0.63964051078E+02  0.74470750000E+01 0. -1.
<mgrwt>
<rscale>  0 0.14942299E+02</rscale>
<asrwt>0</asrwt>
<pdfrwt beam="1">  1        2 0.99106355E+00 0.14942299E+02</pdfrwt>
<pdfrwt beam="2">  1       -2 0.99297370E+00 0.14942299E+02</pdfrwt>
<totfact>-0.14043959E-13</totfact>
</mgrwt>
</event>
<event>
 4    1 -0.5010510E-019  0.1500680E+02  0.7818608E-02  0.1867861E+00
         -2   -1    0    0    0  501 -0.00000000000E+00  0.00000000000E+00  0.11972388478E+03  0.11972388481E+03  0.25500000000E-02 0. -1.
          2   -1    0    0  501    0  0.00000000000E+00 -0.00000000000E+00 -0.47025341121E+00  0.47026032499E+00  0.25500000000E-02 0.  1.
         31    1    1    2    0    0  0.54287622444E+00 -0.42002210821E-01  0.65542752998E+02  0.65966717937E+02  0.74470750000E+01 0. -1.
        -31    1    1    2    0    0 -0.54287622444E+00  0.42002210821E-01  0.53710878375E+02  0.54227427199E+02  0.74470750000E+01 0.  1.
<mgrwt>
<rscale>  0 0.15006796E+02</rscale>
<asrwt>0</asrwt>
<pdfrwt beam="2">  1        2 0.99875696E+00 0.15006796E+02</pdfrwt>
<pdfrwt beam="1">  1       -2 0.99384929E+00 0.15006796E+02</pdfrwt>
<totfact>-0.42835218E-14</totfact>
</mgrwt>
</event>
<event>
 4    1 -0.5010510E-019  0.1490891E+02  0.7818608E-02  0.1870861E+00
         -2   -1    0    0    0  501 -0.00000000000E+00  0.00000000000E+00  0.11969971509E+03  0.11969971512E+03  0.25500000000E-02 0.  1.
          2   -1    0    0  501    0  0.00000000000E+00 -0.00000000000E+00 -0.46423226641E+00  0.46423926985E+00  0.25500000000E-02 0. -1.
         31    1    1    2    0    0  0.42320223482E-01 -0.32695455791E+00  0.59905660306E+02  0.60367671423E+02  0.74470750000E+01 0.  1.
        -31    1    1    2    0    0 -0.42320223482E-01  0.32695455791E+00  0.59329822516E+02  0.59796282963E+02  0.74470750000E+01 0. -1.
<mgrwt>
<rscale>  0 0.14908909E+02</rscale>
<asrwt>0</asrwt>
<pdfrwt beam="2">  1        2 0.98601764E+00 0.14908909E+02</pdfrwt>
<pdfrwt beam="1">  1       -2 0.99359965E+00 0.14908909E+02</pdfrwt>
<totfact>-0.27947367E-13</totfact>
</mgrwt>
</event>
<event>
 4    1  0.5010510E-019  0.1494150E+02  0.7818608E-02  0.1869859E+00
          2   -1    0    0  501    0  0.00000000000E+00  0.00000000000E+00  0.11997501876E+03  0.11997501879E+03  0.25500000000E-02 0. -1.
         -2   -1    0    0    0  501 -0.00000000000E+00 -0.00000000000E+00 -0.46519449255E+00  0.46520148151E+00  0.25500000000E-02 0.  1.
         31    1    1    2    0    0  0.37090109548E+00  0.26558558806E+00  0.56684281913E+02  0.57173200412E+02  0.74470750000E+01 0.  1.
        -31    1    1    2    0    0 -0.37090109548E+00 -0.26558558806E+00  0.62825542359E+02  0.63267019860E+02  0.74470750000E+01 0.  1.
<mgrwt>
<rscale>  0 0.14941505E+02</rscale>
<asrwt>0</asrwt>
<pdfrwt beam="1">  1        2 0.99588401E+00 0.14941505E+02</pdfrwt>
<pdfrwt beam="2">  1       -2 0.98806222E+00 0.14941505E+02</pdfrwt>
<totfact> 0.13129839E-13</totfact>
</mgrwt>
</event>
<event>
 4    1  0.5010510E-019  0.1491044E+02  0.7818608E-02  0.1870814E+00
          2   -1    0    0  501    0  0.00000000000E+00  0.00000000000E+00  0.12034945127E+03  0.12034945130E+03  0.25500000000E-02 0. -1.
         -2   -1    0    0    0  501 -0.00000000000E+00 -0.00000000000E+00 -0.46182071869E+00  0.46182775870E+00  0.25500000000E-02 0.  1.
         31    1    1    2    0    0 -0.29104293587E+00  0.36636816771E-01  0.58421012047E+02  0.58894478713E+02  0.74470750000E+01 0.  1.
        -31    1    1    2    0    0  0.29104293587E+00 -0.36636816771E-01  0.61466618505E+02  0.61916800343E+02  0.74470750000E+01 0. -1.
<mgrwt>
<rscale>  0 0.14910439E+02</rscale>
<asrwt>0</asrwt>
<pdfrwt beam="1">  1        2 0.99895218E+00 0.14910439E+02</pdfrwt>
<pdfrwt beam="2">  1       -2 0.98093569E+00 0.14910439E+02</pdfrwt>
<totfact> 0.38410176E-13</totfact>
</mgrwt>
</event>
<event>
 4    1  0.5010510E-019  0.1490016E+02  0.7818608E-02  0.1871131E+00
         -2   -1    0    0    0  501 -0.00000000000E+00  0.00000000000E+00  0.11877253169E+03  0.11877253172E+03  0.25500000000E-02 0. -1.
          2   -1    0    0  501    0  0.00000000000E+00 -0.00000000000E+00 -0.46730720894E+00  0.46731416630E+00  0.25500000000E-02 0.  1.
         31    1    1    2    0    0 -0.20593176921E+00  0.65093485898E-02  0.59536435510E+02  0.60000737742E+02  0.74470750000E+01 0. -1.
        -31    1    1    2    0    0  0.20593176921E+00 -0.65093485898E-02  0.58768788970E+02  0.59239108141E+02  0.74470750000E+01 0.  1.
<mgrwt>
<rscale>  0 0.14900158E+02</rscale>
<asrwt>0</asrwt>
<pdfrwt beam="2">  1        2 0.99249312E+00 0.14900158E+02</pdfrwt>
<pdfrwt beam="1">  1       -2 0.98595847E+00 0.14900158E+02</pdfrwt>
<totfact> 0.44281414E-13</totfact>
</mgrwt>
</event>
<event>
 4    1 -0.5010510E-019  0.1495797E+02  0.7818608E-02  0.1869354E+00
          2   -1    0    0  501    0  0.00000000000E+00  0.00000000000E+00  0.11965913145E+03  0.11965913148E+03  0.25500000000E-02 0. -1.
         -2   -1    0    0    0  501 -0.00000000000E+00 -0.00000000000E+00 -0.46745121532E+00  0.46745817054E+00  0.25500000000E-02 0.  1.
         31    1    1    2    0    0 -0.61985865331E+00  0.24658596344E+00  0.61015985841E+02  0.61472387977E+02  0.74470750000E+01 0.  1.
        -31    1    1    2    0    0  0.61985865331E+00 -0.24658596344E+00  0.58175694393E+02  0.58654201670E+02  0.74470750000E+01 0.  1.
<mgrwt>
<rscale>  0 0.14957971E+02</rscale>
<asrwt>0</asrwt>
<pdfrwt beam="1">  1        2 0.99329069E+00 0.14957971E+02</pdfrwt>
<pdfrwt beam="2">  1       -2 0.99282660E+00 0.14957971E+02</pdfrwt>
<totfact>-0.11567671E-13</totfact>
</mgrwt>
</event>
<event>
 4    1  0.5010510E-019  0.1491362E+02  0.7818608E-02  0.1870716E+00
         -2   -1    0    0    0  501 -0.00000000000E+00  0.00000000000E+00  0.11871075478E+03  0.11871075481E+03  0.25500000000E-02 0.  1.
          2   -1    0    0  501    0  0.00000000000E+00 -0.00000000000E+00 -0.46839584131E+00  0.46840278251E+00  0.25500000000E-02 0. -1.
         31    1    1    2    0    0  0.15191288540E+00  0.32727238198E+00  0.60097567944E+02  0.60558292443E+02  0.74470750000E+01 0. -1.
        -31    1    1    2    0    0 -0.15191288540E+00 -0.32727238198E+00  0.58144790998E+02  0.58620865150E+02  0.74470750000E+01 0. -1.
<mgrwt>
<rscale>  0 0.14913623E+02</rscale>
<asrwt>0</asrwt>
<pdfrwt beam="2">  1        2 0.99479407E+00 0.14913623E+02</pdfrwt>
<pdfrwt beam="1">  1       -2 0.98545666E+00 0.14913623E+02</pdfrwt>
<totfact> 0.43291649E-13</totfact>
</mgrwt>
</event>
<event>
 4    1 -0.5010510E-019  0.1492477E+02  0.7818608E-02  0.1870373E+00
         -2   -1    0    0    0  501 -0.00000000000E+00  0.00000000000E+00  0.11987218561E+03  0.11987218564E+03  0.25500000000E-02 0.  1.
          2   -1    0    0  501    0  0.00000000000E+00 -0.00000000000E+00 -0.46455117218E+00  0.46455817082E+00  0.25500000000E-02 0. -1.
         31    1    1    2    0    0  0.27470390264E+00 -0.12185430879E-01  0.56553607702E+02  0.57042484877E+02  0.74470750000E+01 0. -1.
        -31    1    1    2    0    0 -0.27470390264E+00  0.12185430879E-01  0.62854026739E+02  0.63294258934E+02  0.74470750000E+01 0.  1.
<mgrwt>
<rscale>  0 0.14924770E+02</rscale>
<asrwt>0</asrwt>
<pdfrwt beam="2">  1        2 0.98669785E+00 0.14924770E+02</pdfrwt>
<pdfrwt beam="1">  1       -2 0.99502839E+00 0.14924770E+02</pdfrwt>
<totfact>-0.26670407E-13</totfact>
</mgrwt>
</event>
<event>
 4    1 -0.5010510E-019  0.1491257E+02  0.7818608E-02  0.1870748E+00
          2   -1    0    0  501    0  0.00000000000E+00  0.00000000000E+00  0.11891939105E+03  0.11891939107E+03  0.25500000000E-02 0. -1.
         -2   -1    0    0    0  501 -0.00000000000E+00 -0.00000000000E+00 -0.46750798986E+00  0.46751494423E+00  0.25500000000E-02 0.  1.
         31    1    1    2    0    0 -0.12815291452E+00 -0.46851967522E-01  0.61983444130E+02  0.62429359203E+02  0.74470750000E+01 0. -1.
        -31    1    1    2    0    0  0.12815291452E+00  0.46851967522E-01  0.56468438927E+02  0.56957546815E+02  0.74470750000E+01 0.  1.
<mgrwt>
<rscale>  0 0.14912569E+02</rscale>
<asrwt>0</asrwt>
<pdfrwt beam="1">  1        2 0.98717447E+00 0.14912569E+02</pdfrwt>
<pdfrwt beam="2">  1       -2 0.99292268E+00 0.14912569E+02</pdfrwt>
<totfact>-0.21328703E-13</totfact>
</mgrwt>
</event>
<event>
 4    1 -0.5010510E-019  0.1500000E+02  0.7818608E-02  0.1868068E+00
         -2   -1    0    0    0  501 -0.00000000000E+00  0.00000000000E+00  0.12011531723E+03  0.12011531726E+03  0.25500000000E-02 0. -1.
          2   -1    0    0  501    0  0.00000000000E+00 -0.00000000000E+00 -0.46829667540E+00  0.46830361806E+00  0.25500000000E-02 0.  1.
         31    1    1    2    0    0 -0.17586604894E+00  0.30175497048E+00  0.66399281400E+02  0.66816506055E+02  0.74470750000E+01 0. -1.
        -31    1    1    2    0    0  0.17586604894E+00 -0.30175497048E+00  0.53247739154E+02  0.53767114820E+02  0.74470750000E+01 0.  1.
<mgrwt>
<rscale>  0 0.15000003E+02</rscale>
<asrwt>0</asrwt>
<pdfrwt beam="2">  1        2 0.99462999E+00 0.15000003E+02</pdfrwt>
<pdfrwt beam="1">  1       -2 0.99706975E+00 0.15000003E+02</pdfrwt>
<totfact>-0.97586192E-14</totfact>
</mgrwt>
</event>
<event>
 4    1 -0.5010510E-019  0.1497489E+02  0.7818608E-02  0.1868836E+00
         -2   -1    0    0    0  501 -0.00000000000E+00  0.00000000000E+00  0.12007123491E+03  0.12007123494E+03  0.25500000000E-02 0. -1.
          2   -1    0    0  501    0  0.00000000000E+00 -0.00000000000E+00 -0.46690106745E+00  0.46690803086E+00  0.25500000000E-02 0.  1.
         31    1    1    2    0    0  0.47739388297E+00  0.24083424553E+00  0.64334009217E+02  0.64765805592E+02  0.74470750000E+01 0. -1.
        -31    1    1    2    0    0 -0.47739388297E+00 -0.24083424553E+00  0.55270324626E+02  0.55772337376E+02  0.74470750000E+01 0.  1.
<mgrwt>
<rscale>  0 0.14974887E+02</rscale>
<asrwt>0</asrwt>
<pdfrwt beam="2">  1        2 0.99167592E+00 0.14974887E+02</pdfrwt>
<pdfrwt beam="1">  1       -2 0.99669370E+00 0.14974887E+02</pdfrwt>
<totfact>-0.13192279E-13</totfact>
</mgrwt>
</event>
<event>
 4    1 -0.5010510E-019  0.1499392E+02  0.7818608E-02  0.1868254E+00
          2   -1    0    0  501    0  0.00000000000E+00  0.00000000000E+00  0.11983793566E+03  0.11983793569E+03  0.25500000000E-02 0.  1.
         -2   -1    0    0    0  501 -0.00000000000E+00 -0.00000000000E+00 -0.46900021187E+00  0.46900714412E+00  0.25500000000E-02 0. -1.
         31    1    1    2    0    0  0.12722863405E+00 -0.93357395628E-01  0.52873251690E+02  0.53395360969E+02  0.74470750000E+01 0. -1.
        -31    1    1    2    0    0 -0.12722863405E+00  0.93357395628E-01  0.66495683757E+02  0.66911581861E+02  0.74470750000E+01 0.  1.
<mgrwt>
<rscale>  0 0.14993924E+02</rscale>
<asrwt>0</asrwt>
<pdfrwt beam="1">  1        2 0.99478198E+00 0.14993924E+02</pdfrwt>
<pdfrwt beam="2">  1       -2 0.99610945E+00 0.14993924E+02</pdfrwt>
<totfact>-0.11302718E-13</totfact>
</mgrwt>
</event>
<event>
 4    1  0.5010510E-019  0.1491230E+02  0.7818608E-02  0.1870756E+00
         -2   -1    0    0    0  501 -0.00000000000E+00  0.00000000000E+00  0.11861055540E+03  0.11861055542E+03  0.25500000000E-02 0. -1.
          2   -1    0    0  501    0  0.00000000000E+00 -0.00000000000E+00 -0.46870853748E+00  0.46871547404E+00  0.25500000000E-02 0.  1.
         31    1    1    2    0    0 -0.18545036682E-01 -0.27103513388E+00  0.61050643801E+02  0.61503770929E+02  0.74470750000E+01 0.  1.
        -31    1    1    2    0    0  0.18545036682E-01  0.27103513388E+00  0.57091203058E+02  0.57575499969E+02  0.74470750000E+01 0.  1.
<mgrwt>
<rscale>  0 0.14912303E+02</rscale>
<asrwt>0</asrwt>
<pdfrwt beam="2">  1        2 0.99545225E+00 0.14912303E+02</pdfrwt>
<pdfrwt beam="1">  1       -2 0.98463073E+00 0.14912303E+02</pdfrwt>
<totfact> 0.51041501E-13</totfact>
</mgrwt>
</event>
<event>
 4    1 -0.5010510E-019  0.1495945E+02  0.7818608E-02  0.1869308E+00
         -2   -1    0    0    0  501 -0.00000000000E+00  0.00000000000E+00  0.11973392479E+03  0.11973392482E+03  0.25500000000E-02 0.  1.
          2   -1    0    0  501    0  0.00000000000E+00 -0.00000000000E+00 -0.46725160446E+00  0.46725856265E+00  0.25500000000E-02 0. -1.
         31    1    1    2    0    0 -0.38319432969E+00 -0.10615785349E+00  0.64243955208E+02  0.64675364817E+02  0.74470750000E+01 0.  1.
        -31    1    1    2    0    0  0.38319432969E+00  0.10615785349E+00  0.55022717980E+02  0.55525818566E+02  0.74470750000E+01 0. -1.
<mgrwt>
<rscale>  0 0.14959450E+02</rscale>
<asrwt>0</asrwt>
<pdfrwt beam="2">  1        2 0.99240671E+00 0.14959450E+02</pdfrwt>
<pdfrwt beam="1">  1       -2 0.99390748E+00 0.14959450E+02</pdfrwt>
<totfact>-0.14286903E-13</totfact>
</mgrwt>
</event>
<event>
 4    1 -0.5010510E-019  0.1491875E+02  0.7818608E-02  0.1870558E+00
          2   -1    0    0  501    0  0.00000000000E+00  0.00000000000E+00  0.11872443720E+03  0.11872443723E+03  0.25500000000E-02 0. -1.
         -2   -1    0    0    0  501 -0.00000000000E+00 -0.00000000000E+00 -0.46866406005E+00  0.46867099727E+00  0.25500000000E-02 0.  1.
         31    1    1    2    0    0 -0.75433722761E-01 -0.35809455403E+00  0.60904425215E+02  0.61359122050E+02  0.74470750000E+01 0. -1.
        -31    1    1    2    0    0  0.75433722761E-01  0.35809455403E+00  0.57351347929E+02  0.57833986178E+02  0.74470750000E+01 0.  1.
<mgrwt>
<rscale>  0 0.14918752E+02</rscale>
<asrwt>0</asrwt>
<pdfrwt beam="1">  1        2 0.98557201E+00 0.14918752E+02</pdfrwt>
<pdfrwt beam="2">  1       -2 0.99536192E+00 0.14918752E+02</pdfrwt>
<totfact>-0.31263482E-13</totfact>
</mgrwt>
</event>
<event>
 4    1 -0.5010510E-019  0.1495626E+02  0.7818608E-02  0.1869406E+00
          2   -1    0    0  501    0  0.00000000000E+00  0.00000000000E+00  0.11915365734E+03  0.11915365737E+03  0.25500000000E-02 0.  1.
         -2   -1    0    0    0  501 -0.00000000000E+00 -0.00000000000E+00 -0.46932657571E+00  0.46933350314E+00  0.25500000000E-02 0. -1.
         31    1    1    2    0    0 -0.63316105530E+00  0.24927105707E+00  0.59509730307E+02  0.59977745509E+02  0.74470750000E+01 0.  1.
        -31    1    1    2    0    0  0.63316105530E+00 -0.24927105707E+00  0.59174600458E+02  0.59645245362E+02  0.74470750000E+01 0.  1.
<mgrwt>
<rscale>  0 0.14956255E+02</rscale>
<asrwt>0</asrwt>
<pdfrwt beam="1">  1        2 0.98912658E+00 0.14956255E+02</pdfrwt>
<pdfrwt beam="2">  1       -2 0.99677757E+00 0.14956255E+02</pdfrwt>
<totfact>-0.16360337E-13</totfact>
</mgrwt>
</event>
<event>
 4    1  0.5010510E-019  0.1493560E+02  0.7818608E-02  0.1870040E+00
         -2   -1    0    0    0  501 -0.00000000000E+00  0.00000000000E+00  0.11903836497E+03  0.11903836499E+03  0.25500000000E-02 0. -1.
          2   -1    0    0  501    0  0.00000000000E+00 -0.00000000000E+00 -0.46848443549E+00  0.46849137537E+00  0.25500000000E-02 0.  1.
         31    1    1    2    0    0 -0.35229579800E+00  0.41423157711E+00  0.60211570074E+02  0.60672792889E+02  0.74470750000E+01 0.  1.
        -31    1    1    2    0    0  0.35229579800E+00 -0.41423157711E+00  0.58358310457E+02  0.58834063480E+02  0.74470750000E+01 0. -1.
<mgrwt>
<rscale>  0 0.14935600E+02</rscale>
<asrwt>0</asrwt>
<pdfrwt beam="2">  1        2 0.99499225E+00 0.14935600E+02</pdfrwt>
<pdfrwt beam="1">  1       -2 0.98816630E+00 0.14935600E+02</pdfrwt>
<totfact> 0.13724089E-13</totfact>
</mgrwt>
</event>
<event>
 4    1  0.5010510E-019  0.1491530E+02  0.7818608E-02  0.1870664E+00
          2   -1    0    0  501    0  0.00000000000E+00  0.00000000000E+00  0.11943732022E+03  0.11943732024E+03  0.25500000000E-02 0. -1.
         -2   -1    0    0    0  501 -0.00000000000E+00 -0.00000000000E+00 -0.46565138731E+00  0.46565836942E+00  0.25500000000E-02 0.  1.
         31    1    1    2    0    0 -0.14464891648E+00 -0.36955976105E+00  0.59584386892E+02  0.60049276308E+02  0.74470750000E+01 0.  1.
        -31    1    1    2    0    0  0.14464891648E+00  0.36955976105E+00  0.59387281936E+02  0.59853702305E+02  0.74470750000E+01 0. -1.
<mgrwt>
<rscale>  0 0.14915304E+02</rscale>
<asrwt>0</asrwt>
<pdfrwt beam="1">  1        2 0.99144172E+00 0.14915304E+02</pdfrwt>
<pdfrwt beam="2">  1       -2 0.98901168E+00 0.14915304E+02</pdfrwt>
<totfact> 0.94746454E-14</totfact>
</mgrwt>
</event>
<event>
 4    1  0.5010510E-019  0.1491816E+02  0.7818608E-02  0.1870576E+00
         -2   -1    0    0    0  501 -0.00000000000E+00  0.00000000000E+00  0.11860769596E+03  0.11860769598E+03  0.25500000000E-02 0. -1.
          2   -1    0    0  501    0  0.00000000000E+00 -0.00000000000E+00 -0.46908793570E+00  0.46909486665E+00  0.25500000000E-02 0.  1.
         31    1    1    2    0    0  0.13392518319E+00  0.39623288365E+00  0.59573564291E+02  0.60038682737E+02  0.74470750000E+01 0. -1.
        -31    1    1    2    0    0 -0.13392518319E+00 -0.39623288365E+00  0.58565043731E+02  0.59038108114E+02  0.74470750000E+01 0. -1.
<mgrwt>
<rscale>  0 0.14918157E+02</rscale>
<asrwt>0</asrwt>
<pdfrwt beam="2">  1        2 0.99625474E+00 0.14918157E+02</pdfrwt>
<pdfrwt beam="1">  1       -2 0.98461022E+00 0.14918157E+02</pdfrwt>
<totfact> 0.45916255E-13</totfact>
</mgrwt>
</event>
<event>
 4    1 -0.5010510E-019  0.1490681E+02  0.7818608E-02  0.1870926E+00
         -2   -1    0    0    0  501 -0.00000000000E+00  0.00000000000E+00  0.12010611270E+03  0.12010611273E+03  0.25500000000E-02 0.  1.
          2   -1    0    0  501    0  0.00000000000E+00 -0.00000000000E+00 -0.46253119247E+00  0.46253822167E+00  0.25500000000E-02 0. -1.
         31    1    1    2    0    0 -0.92728662568E-01 -0.29250423023E+00  0.59717729845E+02  0.60181062978E+02  0.74470750000E+01 0.  1.
        -31    1    1    2    0    0  0.92728662568E-01  0.29250423023E+00  0.59925851667E+02  0.60387587975E+02  0.74470750000E+01 0.  1.
<mgrwt>
<rscale>  0 0.14906810E+02</rscale>
<asrwt>0</asrwt>
<pdfrwt beam="2">  1        2 0.98243136E+00 0.14906810E+02</pdfrwt>
<pdfrwt beam="1">  1       -2 0.99694596E+00 0.14906810E+02</pdfrwt>
<totfact>-0.43193080E-13</totfact>
</mgrwt>
</event>
<event>
 4    1  0.5010510E-019  0.1490451E+02  0.7818608E-02  0.1870996E+00
         -2   -1    0    0    0  501 -0.00000000000E+00  0.00000000000E+00  0.11839692138E+03  0.11839692141E+03  0.25500000000E-02 0.  1.
          2   -1    0    0  501    0  0.00000000000E+00 -0.00000000000E+00 -0.46906380002E+00  0.46907073133E+00  0.25500000000E-02 0. -1.
         31    1    1    2    0    0  0.35484174825E-01  0.29412620485E-01  0.61149083378E+02  0.61600904606E+02  0.74470750000E+01 0.  1.
        -31    1    1    2    0    0 -0.35484174825E-01 -0.29412620485E-01  0.56778774205E+02  0.57265087536E+02  0.74470750000E+01 0. -1.
<mgrwt>
<rscale>  0 0.14904513E+02</rscale>
<asrwt>0</asrwt>
<pdfrwt beam="2">  1        2 0.99619670E+00 0.14904513E+02</pdfrwt>
<pdfrwt beam="1">  1       -2 0.98286719E+00 0.14904513E+02</pdfrwt>
<totfact> 0.70401734E-13</totfact>
</mgrwt>
</event>
<event>
 4    1  0.5010510E-019  0.1489842E+02  0.7818608E-02  0.1871184E+00
         -2   -1    0    0    0  501 -0.00000000000E+00  0.00000000000E+00  0.11855499796E+03  0.11855499799E+03  0.25500000000E-02 0.  1.
          2   -1    0    0  501    0  0.00000000000E+00 -0.00000000000E+00 -0.46805569336E+00  0.46806263960E+00  0.25500000000E-02 0. -1.
         31    1    1    2    0    0  0.14893369684E+00  0.74677825456E-01  0.58533633046E+02  0.59005702111E+02  0.74470750000E+01 0.  1.
        -31    1    1    2    0    0 -0.14893369684E+00 -0.74677825456E-01  0.59553309219E+02  0.60017358514E+02  0.74470750000E+01 0.  1.
<mgrwt>
<rscale>  0 0.14898424E+02</rscale>
<asrwt>0</asrwt>
<pdfrwt beam="2">  1        2 0.99406937E+00 0.14898424E+02</pdfrwt>
<pdfrwt beam="1">  1       -2 0.98416594E+00 0.14898424E+02</pdfrwt>
<totfact> 0.65929162E-13</totfact>
</mgrwt>
</event>
<event>
 4    1 -0.5010510E-019  0.1494005E+02  0.7818608E-02  0.1869903E+00
          2   -1    0    0  501    0  0.00000000000E+00  0.00000000000E+00  0.11916628066E+03  0.11916628069E+03  0.25500000000E-02 0.  1.
         -2   -1    0    0    0  501 -0.00000000000E+00 -0.00000000000E+00 -0.46826072335E+00  0.46826766655E+00  0.25500000000E-02 0. -1.
         31    1    1    2    0    0  0.83844567871E-01  0.56038860146E+00  0.60518080804E+02  0.60977193241E+02  0.74470750000E+01 0.  1.
        -31    1    1    2    0    0 -0.83844567871E-01 -0.56038860146E+00  0.58179939131E+02  0.58657355112E+02  0.74470750000E+01 0. -1.
<mgrwt>
<rscale>  0 0.14940054E+02</rscale>
<asrwt>0</asrwt>
<pdfrwt beam="1">  1        2 0.98922215E+00 0.14940054E+02</pdfrwt>
<pdfrwt beam="2">  1       -2 0.99452317E+00 0.14940054E+02</pdfrwt>
<totfact>-0.19334762E-13</totfact>
</mgrwt>
</event>
<event>
 4    1  0.5010510E-019  0.1489873E+02  0.7818608E-02  0.1871175E+00
         -2   -1    0    0    0  501 -0.00000000000E+00  0.00000000000E+00  0.11865950135E+03  0.11865950138E+03  0.25500000000E-02 0.  1.
          2   -1    0    0  501    0  0.00000000000E+00 -0.00000000000E+00 -0.46766282717E+00  0.46766977924E+00  0.25500000000E-02 0. -1.
         31    1    1    2    0    0  0.14562562813E+00  0.11362720619E+00  0.59120660844E+02  0.59588132901E+02  0.74470750000E+01 0. -1.
        -31    1    1    2    0    0 -0.14562562813E+00 -0.11362720619E+00  0.59071177683E+02  0.59539038260E+02  0.74470750000E+01 0. -1.
<mgrwt>
<rscale>  0 0.14898732E+02</rscale>
<asrwt>0</asrwt>
<pdfrwt beam="2">  1        2 0.99324172E+00 0.14898732E+02</pdfrwt>
<pdfrwt beam="1">  1       -2 0.98502680E+00 0.14898732E+02</pdfrwt>
<totfact> 0.55828010E-13</totfact>
</mgrwt>
</event>
<event>
 4    1 -0.5010510E-019  0.1497131E+02  0.7818608E-02  0.1868945E+00
          2   -1    0    0  501    0  0.00000000000E+00  0.00000000000E+00  0.11922155918E+03  0.11922155920E+03  0.25500000000E-02 0. -1.
         -2   -1    0    0    0  501 -0.00000000000E+00 -0.00000000000E+00 -0.47000410488E+00  0.47001102232E+00  0.25500000000E-02 0.  1.
         31    1    1    2    0    0 -0.54059068320E+00 -0.48086645614E+00  0.57541498153E+02  0.58025911511E+02  0.74470750000E+01 0. -1.
        -31    1    1    2    0    0  0.54059068320E+00  0.48086645614E+00  0.61210056917E+02  0.61665658715E+02  0.74470750000E+01 0. -1.
<mgrwt>
<rscale>  0 0.14971311E+02</rscale>
<asrwt>0</asrwt>
<pdfrwt beam="1">  1        2 0.98969365E+00 0.14971311E+02</pdfrwt>
<pdfrwt beam="2">  1       -2 0.99821309E+00 0.14971311E+02</pdfrwt>
<totfact>-0.99741692E-14</totfact>
</mgrwt>
</event>
<event>
 4    1 -0.5010510E-019  0.1490960E+02  0.7818608E-02  0.1870840E+00
          2   -1    0    0  501    0  0.00000000000E+00  0.00000000000E+00  0.11911729789E+03  0.11911729791E+03  0.25500000000E-02 0. -1.
         -2   -1    0    0    0  501 -0.00000000000E+00 -0.00000000000E+00 -0.46654528173E+00  0.46655225046E+00  0.25500000000E-02 0.  1.
         31    1    1    2    0    0 -0.72374457467E-01 -0.23240827287E+00  0.57429834912E+02  0.57911174360E+02  0.74470750000E+01 0.  1.
        -31    1    1    2    0    0  0.72374457467E-01  0.23240827287E+00  0.61220917692E+02  0.61672675803E+02  0.74470750000E+01 0. -1.
<mgrwt>
<rscale>  0 0.14909598E+02</rscale>
<asrwt>0</asrwt>
<pdfrwt beam="1">  1        2 0.98880294E+00 0.14909598E+02</pdfrwt>
<pdfrwt beam="2">  1       -2 0.99089247E+00 0.14909598E+02</pdfrwt>
<totfact>-0.62918924E-14</totfact>
</mgrwt>
</event>
<event>
 4    1  0.5010510E-019  0.1495270E+02  0.7818608E-02  0.1869515E+00
         -2   -1    0    0    0  501 -0.00000000000E+00  0.00000000000E+00  0.11908127852E+03  0.11908127855E+03  0.25500000000E-02 0. -1.
          2   -1    0    0  501    0  0.00000000000E+00 -0.00000000000E+00 -0.46938833998E+00  0.46939526650E+00  0.25500000000E-02 0.  1.
         31    1    1    2    0    0  0.62629923109E+00  0.17746333440E+00  0.58390521237E+02  0.58867101511E+02  0.74470750000E+01 0. -1.
        -31    1    1    2    0    0 -0.62629923109E+00 -0.17746333440E+00  0.60221368944E+02  0.60683572303E+02  0.74470750000E+01 0.  1.
<mgrwt>
<rscale>  0 0.14952696E+02</rscale>
<asrwt>0</asrwt>
<pdfrwt beam="2">  1        2 0.99690585E+00 0.14952696E+02</pdfrwt>
<pdfrwt beam="1">  1       -2 0.98852862E+00 0.14952696E+02</pdfrwt>
<totfact> 0.81205812E-14</totfact>
</mgrwt>
</event>
<event>
 4    1 -0.5010510E-019  0.1491258E+02  0.7818608E-02  0.1870748E+00
          2   -1    0    0  501    0  0.00000000000E+00  0.00000000000E+00  0.11844528775E+03  0.11844528778E+03  0.25500000000E-02 0.  1.
         -2   -1    0    0    0  501 -0.00000000000E+00 -0.00000000000E+00 -0.46937975329E+00  0.46938667993E+00  0.25500000000E-02 0. -1.
         31    1    1    2    0    0  0.80179135010E-01  0.64085266848E-01  0.56148766955E+02  0.56640564018E+02  0.74470750000E+01 0. -1.
        -31    1    1    2    0    0 -0.80179135010E-01 -0.64085266848E-01  0.61827141044E+02  0.62274110442E+02  0.74470750000E+01 0.  1.
<mgrwt>
<rscale>  0 0.14912576E+02</rscale>
<asrwt>0</asrwt>
<pdfrwt beam="1">  1        2 0.98326973E+00 0.14912576E+02</pdfrwt>
<pdfrwt beam="2">  1       -2 0.99686667E+00 0.14912576E+02</pdfrwt>
<totfact>-0.38097756E-13</totfact>
</mgrwt>
</event>
<event>
 4    1 -0.5010510E-019  0.1493102E+02  0.7818608E-02  0.1870181E+00
         -2   -1    0    0    0  501 -0.00000000000E+00  0.00000000000E+00  0.11953729050E+03  0.11953729053E+03  0.25500000000E-02 0.  1.
          2   -1    0    0  501    0  0.00000000000E+00 -0.00000000000E+00 -0.46624315366E+00  0.46625012690E+00  0.25500000000E-02 0. -1.
         31    1    1    2    0    0  0.47351303189E+00  0.51370326929E-01  0.57773126408E+02  0.58253067855E+02  0.74470750000E+01 0.  1.
        -31    1    1    2    0    0 -0.47351303189E+00 -0.51370326929E-01  0.61297920940E+02  0.61750472801E+02  0.74470750000E+01 0. -1.
<mgrwt>
<rscale>  0 0.14931023E+02</rscale>
<asrwt>0</asrwt>
<pdfrwt beam="2">  1        2 0.99026686E+00 0.14931023E+02</pdfrwt>
<pdfrwt beam="1">  1       -2 0.99227324E+00 0.14931023E+02</pdfrwt>
<totfact>-0.12666311E-13</totfact>
</mgrwt>
</event>
<event>
 4    1 -0.5010510E-019  0.1490625E+02  0.7818608E-02  0.1870943E+00
          2   -1    0    0  501    0  0.00000000000E+00  0.00000000000E+00  0.11864964796E+03  0.11864964798E+03  0.25500000000E-02 0. -1.
         -2   -1    0    0    0  501 -0.00000000000E+00 -0.00000000000E+00 -0.46817402717E+00  0.46818097165E+00  0.25500000000E-02 0.  1.
         31    1    1    2    0    0  0.24769004835E+00  0.64850750960E-01  0.60344522518E+02  0.60802844342E+02  0.74470750000E+01 0.  1.
        -31    1    1    2    0    0 -0.24769004835E+00 -0.64850750960E-01  0.57836951412E+02  0.58314984615E+02  0.74470750000E+01 0.  1.
<mgrwt>
<rscale>  0 0.14906254E+02</rscale>
<asrwt>0</asrwt>
<pdfrwt beam="1">  1        2 0.98494955E+00 0.14906254E+02</pdfrwt>
<pdfrwt beam="2">  1       -2 0.99432282E+00 0.14906254E+02</pdfrwt>
<totfact>-0.34827733E-13</totfact>
</mgrwt>
</event>
<event>
 4    1 -0.5010510E-019  0.1490589E+02  0.7818608E-02  0.1870954E+00
          2   -1    0    0  501    0  0.00000000000E+00  0.00000000000E+00  0.11848951949E+03  0.11848951952E+03  0.25500000000E-02 0.  1.
         -2   -1    0    0    0  501 -0.00000000000E+00 -0.00000000000E+00 -0.46878412029E+00  0.46879105574E+00  0.25500000000E-02 0. -1.
         31    1    1    2    0    0  0.19775714921E+00 -0.21715079992E+00  0.59290360038E+02  0.59756940867E+02  0.74470750000E+01 0. -1.
        -31    1    1    2    0    0 -0.19775714921E+00  0.21715079992E+00  0.58730375332E+02  0.59201369706E+02  0.74470750000E+01 0. -1.
<mgrwt>
<rscale>  0 0.14905894E+02</rscale>
<asrwt>0</asrwt>
<pdfrwt beam="1">  1        2 0.98363054E+00 0.14905894E+02</pdfrwt>
<pdfrwt beam="2">  1       -2 0.99560814E+00 0.14905894E+02</pdfrwt>
<totfact>-0.42321021E-13</totfact>
</mgrwt>
</event>
<event>
 4    1 -0.5010510E-019  0.1490943E+02  0.7818608E-02  0.1870845E+00
          2   -1    0    0  501    0  0.00000000000E+00  0.00000000000E+00  0.11842437333E+03  0.11842437335E+03  0.25500000000E-02 0.  1.
         -2   -1    0    0    0  501 -0.00000000000E+00 -0.00000000000E+00 -0.46926481350E+00  0.46927174184E+00  0.25500000000E-02 0. -1.
         31    1    1    2    0    0 -0.26595581342E+00 -0.17230280460E+00  0.59902657633E+02  0.60364623235E+02  0.74470750000E+01 0.  1.
        -31    1    1    2    0    0  0.26595581342E+00  0.17230280460E+00  0.58052450881E+02  0.58529021861E+02  0.74470750000E+01 0.  1.
<mgrwt>
<rscale>  0 0.14909434E+02</rscale>
<asrwt>0</asrwt>
<pdfrwt beam="1">  1        2 0.98309584E+00 0.14909434E+02</pdfrwt>
<pdfrwt beam="2">  1       -2 0.99662283E+00 0.14909434E+02</pdfrwt>
<totfact>-0.41036927E-13</totfact>
</mgrwt>
</event>
<event>
 4    1  0.5010510E-019  0.1491778E+02  0.7818608E-02  0.1870588E+00
          2   -1    0    0  501    0  0.00000000000E+00  0.00000000000E+00  0.12025439645E+03  0.12025439647E+03  0.25500000000E-02 0. -1.
         -2   -1    0    0    0  501 -0.00000000000E+00 -0.00000000000E+00 -0.46264113268E+00  0.46264816021E+00  0.25500000000E-02 0.  1.
         31    1    1    2    0    0 -0.20063410725E-01 -0.87882749722E-01  0.63212714886E+02  0.63649936176E+02  0.74470750000E+01 0. -1.
        -31    1    1    2    0    0  0.20063410725E-01  0.87882749722E-01  0.56579040428E+02  0.57067108458E+02  0.74470750000E+01 0.  1.
<mgrwt>
<rscale>  0 0.14917782E+02</rscale>
<asrwt>0</asrwt>
<pdfrwt beam="1">  1        2 0.99817299E+00 0.14917782E+02</pdfrwt>
<pdfrwt beam="2">  1       -2 0.98266863E+00 0.14917782E+02</pdfrwt>
<totfact> 0.43750241E-13</totfact>
</mgrwt>
</event>
<event>
 4    1 -0.5010510E-019  0.1494463E+02  0.7818608E-02  0.1869763E+00
          2   -1    0    0  501    0  0.00000000000E+00  0.00000000000E+00  0.11889684511E+03  0.11889684514E+03  0.25500000000E-02 0.  1.
         -2   -1    0    0    0  501 -0.00000000000E+00 -0.00000000000E+00 -0.46960949745E+00  0.46961642071E+00  0.25500000000E-02 0. -1.
         31    1    1    2    0    0 -0.47166312095E+00 -0.28637380134E+00  0.57068920689E+02  0.57555409048E+02  0.74470750000E+01 0. -1.
        -31    1    1    2    0    0  0.47166312095E+00  0.28637380134E+00  0.61358314927E+02  0.61811052513E+02  0.74470750000E+01 0.  1.
<mgrwt>
<rscale>  0 0.14944631E+02</rscale>
<asrwt>0</asrwt>
<pdfrwt beam="1">  1        2 0.98700542E+00 0.14944631E+02</pdfrwt>
<pdfrwt beam="2">  1       -2 0.99736762E+00 0.14944631E+02</pdfrwt>
<totfact>-0.18706766E-13</totfact>
</mgrwt>
</event>
<event>
 4    1 -0.5010510E-019  0.1497346E+02  0.7818608E-02  0.1868879E+00
          2   -1    0    0  501    0  0.00000000000E+00  0.00000000000E+00  0.11946173412E+03  0.11946173415E+03  0.25500000000E-02 0.  1.
         -2   -1    0    0    0  501 -0.00000000000E+00 -0.00000000000E+00 -0.46919405756E+00  0.46920098694E+00  0.25500000000E-02 0. -1.
         31    1    1    2    0    0 -0.27311497276E+00  0.59642654751E+00  0.56273373403E+02  0.56767788372E+02  0.74470750000E+01 0. -1.
        -31    1    1    2    0    0  0.27311497276E+00 -0.59642654751E+00  0.62719166661E+02  0.63163146764E+02  0.74470750000E+01 0.  1.
<mgrwt>
<rscale>  0 0.14973464E+02</rscale>
<asrwt>0</asrwt>
<pdfrwt beam="1">  1        2 0.99167288E+00 0.14973464E+02</pdfrwt>
<pdfrwt beam="2">  1       -2 0.99650731E+00 0.14973464E+02</pdfrwt>
<totfact>-0.13614123E-13</totfact>
</mgrwt>
</event>
<event>
 4    1 -0.5010510E-019  0.1494431E+02  0.7818608E-02  0.1869773E+00
          2   -1    0    0  501    0  0.00000000000E+00  0.00000000000E+00  0.11879501130E+03  0.11879501133E+03  0.25500000000E-02 0.  1.
         -2   -1    0    0    0  501 -0.00000000000E+00 -0.00000000000E+00 -0.46999178627E+00  0.46999870389E+00  0.25500000000E-02 0. -1.
         31    1    1    2    0    0  0.39924672928E+00 -0.83333784805E-01  0.62800707416E+02  0.63242028118E+02  0.74470750000E+01 0.  1.
        -31    1    1    2    0    0 -0.39924672928E+00  0.83333784805E-01  0.55524312095E+02  0.56022981911E+02  0.74470750000E+01 0. -1.
<mgrwt>
<rscale>  0 0.14944309E+02</rscale>
<asrwt>0</asrwt>
<pdfrwt beam="1">  1        2 0.98616655E+00 0.14944309E+02</pdfrwt>
<pdfrwt beam="2">  1       -2 0.99817296E+00 0.14944309E+02</pdfrwt>
<totfact>-0.15947472E-13</totfact>
</mgrwt>
</event>
<event>
 4    1 -0.5010510E-019  0.1503122E+02  0.7818608E-02  0.1867117E+00
         -2   -1    0    0    0  501 -0.00000000000E+00  0.00000000000E+00  0.12003289986E+03  0.12003289989E+03  0.25500000000E-02 0. -1.
          2   -1    0    0  501    0  0.00000000000E+00 -0.00000000000E+00 -0.47057083723E+00  0.47057774634E+00  0.25500000000E-02 0.  1.
         31    1    1    2    0    0 -0.78989873345E+00  0.74328451813E-01  0.64826127982E+02  0.65257300434E+02  0.74470750000E+01 0. -1.
        -31    1    1    2    0    0  0.78989873345E+00 -0.74328451813E-01  0.54736201039E+02  0.55246177198E+02  0.74470750000E+01 0. -1.
<mgrwt>
<rscale>  0 0.15031221E+02</rscale>
<asrwt>0</asrwt>
<pdfrwt beam="2">  1        2 0.99943855E+00 0.15031221E+02</pdfrwt>
<pdfrwt beam="1">  1       -2 0.99640707E+00 0.15031221E+02</pdfrwt>
<totfact>-0.19218951E-14</totfact>
</mgrwt>
</event>
<event>
 4    1  0.5010510E-019  0.1491390E+02  0.7818608E-02  0.1870707E+00
         -2   -1    0    0    0  501 -0.00000000000E+00  0.00000000000E+00  0.11874515605E+03  0.11874515608E+03  0.25500000000E-02 0. -1.
          2   -1    0    0  501    0  0.00000000000E+00 -0.00000000000E+00 -0.46827753675E+00  0.46828447970E+00  0.25500000000E-02 0.  1.
         31    1    1    2    0    0  0.11155345852E+00 -0.81235896859E-01  0.61999770510E+02  0.62445572404E+02  0.74470750000E+01 0. -1.
        -31    1    1    2    0    0 -0.11155345852E+00  0.81235896859E-01  0.56277108004E+02  0.56767868154E+02  0.74470750000E+01 0.  1.
<mgrwt>
<rscale>  0 0.14913900E+02</rscale>
<asrwt>0</asrwt>
<pdfrwt beam="2">  1        2 0.99454493E+00 0.14913900E+02</pdfrwt>
<pdfrwt beam="1">  1       -2 0.98574014E+00 0.14913900E+02</pdfrwt>
<totfact> 0.40573652E-13</totfact>
</mgrwt>
</event>
<event>
 4    1 -0.5010510E-019  0.1489900E+02  0.7818608E-02  0.1871166E+00
         -2   -1    0    0    0  501 -0.00000000000E+00  0.00000000000E+00  0.12015412478E+03  0.12015412481E+03  0.25500000000E-02 0. -1.
          2   -1    0    0  501    0  0.00000000000E+00 -0.00000000000E+00 -0.46186177469E+00  0.46186881408E+00  0.25500000000E-02 0.  1.
         31    1    1    2    0    0 -0.18052002542E+00  0.22872076615E-01  0.59403694746E+02  0.59868948430E+02  0.74470750000E+01 0.  1.
        -31    1    1    2    0    0  0.18052002542E+00 -0.22872076615E-01  0.60288568259E+02  0.60747045191E+02  0.74470750000E+01 0. -1.
<mgrwt>
<rscale>  0 0.14898996E+02</rscale>
<asrwt>0</asrwt>
<pdfrwt beam="2">  1        2 0.98101647E+00 0.14898996E+02</pdfrwt>
<pdfrwt beam="1">  1       -2 0.99733743E+00 0.14898996E+02</pdfrwt>
<totfact>-0.49963605E-13</totfact>
</mgrwt>
</event>
<event>
 4    1 -0.5010510E-019  0.1493016E+02  0.7818608E-02  0.1870207E+00
          2   -1    0    0  501    0  0.00000000000E+00  0.00000000000E+00  0.11892876295E+03  0.11892876298E+03  0.25500000000E-02 0.  1.
         -2   -1    0    0    0  501 -0.00000000000E+00 -0.00000000000E+00 -0.46857437547E+00  0.46858131402E+00  0.25500000000E-02 0. -1.
         31    1    1    2    0    0  0.48481135446E+00 -0.75902935386E-01  0.60560044439E+02  0.61018183453E+02  0.74470750000E+01 0.  1.
        -31    1    1    2    0    0 -0.48481135446E+00  0.75902935386E-01  0.57900144134E+02  0.58379160838E+02  0.74470750000E+01 0.  1.
<mgrwt>
<rscale>  0 0.14930156E+02</rscale>
<asrwt>0</asrwt>
<pdfrwt beam="1">  1        2 0.98726078E+00 0.14930156E+02</pdfrwt>
<pdfrwt beam="2">  1       -2 0.99517892E+00 0.14930156E+02</pdfrwt>
<totfact>-0.24504309E-13</totfact>
</mgrwt>
</event>
<event>
 4    1 -0.5010510E-019  0.1491016E+02  0.7818608E-02  0.1870823E+00
         -2   -1    0    0    0  501 -0.00000000000E+00  0.00000000000E+00  0.12033909091E+03  0.12033909094E+03  0.25500000000E-02 0.  1.
          2   -1    0    0  501    0  0.00000000000E+00 -0.00000000000E+00 -0.46184289792E+00  0.46184993759E+00  0.25500000000E-02 0. -1.
         31    1    1    2    0    0 -0.51080427415E-01 -0.33492986912E+00  0.60480183319E+02  0.60937888768E+02  0.74470750000E+01 0.  1.
        -31    1    1    2    0    0  0.51080427415E-01  0.33492986912E+00  0.59397064692E+02  0.59863052105E+02  0.74470750000E+01 0. -1.
<mgrwt>
<rscale>  0 0.14910155E+02</rscale>
<asrwt>0</asrwt>
<pdfrwt beam="2">  1        2 0.98098230E+00 0.14910155E+02</pdfrwt>
<pdfrwt beam="1">  1       -2 0.99886670E+00 0.14910155E+02</pdfrwt>
<totfact>-0.24785355E-13</totfact>
</mgrwt>
</event>
<event>
 4    1 -0.5010510E-019  0.1494074E+02  0.7818608E-02  0.1869882E+00
          2   -1    0    0  501    0  0.00000000000E+00  0.00000000000E+00  0.11886165028E+03  0.11886165031E+03  0.25500000000E-02 0.  1.
         -2   -1    0    0    0  501 -0.00000000000E+00 -0.00000000000E+00 -0.46950372031E+00  0.46951064513E+00  0.25500000000E-02 0. -1.
         31    1    1    2    0    0  0.39134476220E+00  0.12733729291E+00  0.62566821534E+02  0.63009804384E+02  0.74470750000E+01 0.  1.
        -31    1    1    2    0    0 -0.39134476220E+00 -0.12733729291E+00  0.55825325030E+02  0.56321356573E+02  0.74470750000E+01 0. -1.
<mgrwt>
<rscale>  0 0.14940737E+02</rscale>
<asrwt>0</asrwt>
<pdfrwt beam="1">  1        2 0.98671353E+00 0.14940737E+02</pdfrwt>
<pdfrwt beam="2">  1       -2 0.99714270E+00 0.14940737E+02</pdfrwt>
<totfact>-0.20651433E-13</totfact>
</mgrwt>
</event>
<event>
 4    1 -0.5010510E-019  0.1500570E+02  0.7818608E-02  0.1867895E+00
         -2   -1    0    0    0  501 -0.00000000000E+00  0.00000000000E+00  0.11957796777E+03  0.11957796780E+03  0.25500000000E-02 0.  1.
          2   -1    0    0  501    0  0.00000000000E+00 -0.00000000000E+00 -0.47075825375E+00  0.47076516011E+00  0.25500000000E-02 0. -1.
         31    1    1    2    0    0  0.19988362643E+00  0.21717826838E+00  0.52640545189E+02  0.53165524954E+02  0.74470750000E+01 0. -1.
        -31    1    1    2    0    0 -0.19988362643E+00 -0.21717826838E+00  0.66466664330E+02  0.66883208005E+02  0.74470750000E+01 0.  1.
<mgrwt>
<rscale>  0 0.15005696E+02</rscale>
<asrwt>0</asrwt>
<pdfrwt beam="2">  1        2 0.99982018E+00 0.15005696E+02</pdfrwt>
<pdfrwt beam="1">  1       -2 0.99264692E+00 0.15005696E+02</pdfrwt>
<totfact>-0.58023483E-15</totfact>
</mgrwt>
</event>
<event>
 4    1 -0.5010510E-019  0.1493440E+02  0.7818608E-02  0.1870077E+00
         -2   -1    0    0    0  501 -0.00000000000E+00  0.00000000000E+00  0.11989772509E+03  0.11989772512E+03  0.25500000000E-02 0. -1.
          2   -1    0    0  501    0  0.00000000000E+00 -0.00000000000E+00 -0.46505178898E+00  0.46505878009E+00  0.25500000000E-02 0.  1.
         31    1    1    2    0    0 -0.19100979065E+00 -0.16559600491E+00  0.63633594560E+02  0.64068379014E+02  0.74470750000E+01 0. -1.
        -31    1    1    2    0    0  0.19100979065E+00  0.16559600491E+00  0.55799078746E+02  0.56294404889E+02  0.74470750000E+01 0.  1.
<mgrwt>
<rscale>  0 0.14934400E+02</rscale>
<asrwt>0</asrwt>
<pdfrwt beam="2">  1        2 0.98775784E+00 0.14934400E+02</pdfrwt>
<pdfrwt beam="1">  1       -2 0.99524371E+00 0.14934400E+02</pdfrwt>
<totfact>-0.22854660E-13</totfact>
</mgrwt>
</event>
<event>
 4    1 -0.5010510E-019  0.1502375E+02  0.7818608E-02  0.1867345E+00
          2   -1    0    0  501    0  0.00000000000E+00  0.00000000000E+00  0.11992774287E+03  0.11992774290E+03  0.25500000000E-02 0. -1.
         -2   -1    0    0    0  501 -0.00000000000E+00 -0.00000000000E+00 -0.47051534831E+00  0.47052225824E+00  0.25500000000E-02 0.  1.
         31    1    1    2    0    0  0.21940651786E+00  0.52287424804E+00  0.53278581496E+02  0.53799514022E+02  0.74470750000E+01 0.  1.
        -31    1    1    2    0    0 -0.21940651786E+00 -0.52287424804E+00  0.66178646024E+02  0.66598751132E+02  0.74470750000E+01 0. -1.
<mgrwt>
<rscale>  0 0.15023749E+02</rscale>
<asrwt>0</asrwt>
<pdfrwt beam="1">  1        2 0.99553709E+00 0.15023749E+02</pdfrwt>
<pdfrwt beam="2">  1       -2 0.99931774E+00 0.15023749E+02</pdfrwt>
<totfact>-0.25567940E-14</totfact>
</mgrwt>
</event>
<event>
 4    1 -0.5010510E-019  0.1490618E+02  0.7818608E-02  0.1870945E+00
         -2   -1    0    0    0  501 -0.00000000000E+00  0.00000000000E+00  0.12018745382E+03  0.12018745385E+03  0.25500000000E-02 0.  1.
          2   -1    0    0  501    0  0.00000000000E+00 -0.00000000000E+00 -0.46217894387E+00  0.46218597843E+00  0.25500000000E-02 0. -1.
         31    1    1    2    0    0 -0.12055236948E+00 -0.26984854002E+00  0.59477915701E+02  0.59943045746E+02  0.74470750000E+01 0. -1.
        -31    1    1    2    0    0  0.12055236948E+00  0.26984854002E+00  0.60247359178E+02  0.60706594083E+02  0.74470750000E+01 0.  1.
<mgrwt>
<rscale>  0 0.14906178E+02</rscale>
<asrwt>0</asrwt>
<pdfrwt beam="2">  1        2 0.98168860E+00 0.14906178E+02</pdfrwt>
<pdfrwt beam="1">  1       -2 0.99761564E+00 0.14906178E+02</pdfrwt>
<totfact>-0.41183313E-13</totfact>
</mgrwt>
</event>
<event>
 4    1 -0.5010510E-019  0.1498571E+02  0.7818608E-02  0.1868505E+00
          2   -1    0    0  501    0  0.00000000000E+00  0.00000000000E+00  0.11963464781E+03  0.11963464783E+03  0.25500000000E-02 0. -1.
         -2   -1    0    0    0  501 -0.00000000000E+00 -0.00000000000E+00 -0.46928287468E+00  0.46928980276E+00  0.25500000000E-02 0.  1.
         31    1    1    2    0    0  0.71796272147E+00 -0.38665888639E+00  0.60687631369E+02  0.61148282909E+02  0.74470750000E+01 0. -1.
        -31    1    1    2    0    0 -0.71796272147E+00  0.38665888639E+00  0.58477733563E+02  0.58955654727E+02  0.74470750000E+01 0.  1.
<mgrwt>
<rscale>  0 0.14985714E+02</rscale>
<asrwt>0</asrwt>
<pdfrwt beam="1">  1        2 0.99310339E+00 0.14985714E+02</pdfrwt>
<pdfrwt beam="2">  1       -2 0.99670084E+00 0.14985714E+02</pdfrwt>
<totfact>-0.11881290E-13</totfact>
</mgrwt>
</event>
<event>
 4    1 -0.5010510E-019  0.1492089E+02  0.7818608E-02  0.1870492E+00
         -2   -1    0    0    0  501 -0.00000000000E+00  0.00000000000E+00  0.12015987731E+03  0.12015987734E+03  0.25500000000E-02 0. -1.
          2   -1    0    0  501    0  0.00000000000E+00 -0.00000000000E+00 -0.46319786083E+00  0.46320487991E+00  0.25500000000E-02 0.  1.
         31    1    1    2    0    0  0.12053946774E+00 -0.23309056277E+00  0.62768015288E+02  0.63208793140E+02  0.74470750000E+01 0. -1.
        -31    1    1    2    0    0 -0.12053946774E+00  0.23309056277E+00  0.56928664161E+02  0.57414289076E+02  0.74470750000E+01 0.  1.
<mgrwt>
<rscale>  0 0.14920888E+02</rscale>
<asrwt>0</asrwt>
<pdfrwt beam="2">  1        2 0.98384362E+00 0.14920888E+02</pdfrwt>
<pdfrwt beam="1">  1       -2 0.99739604E+00 0.14920888E+02</pdfrwt>
<totfact>-0.30542691E-13</totfact>
</mgrwt>
</event>
<event>
 4    1  0.5010510E-019  0.1492582E+02  0.7818608E-02  0.1870340E+00
          2   -1    0    0  501    0  0.00000000000E+00  0.00000000000E+00  0.11982738188E+03  0.11982738190E+03  0.25500000000E-02 0.  1.
         -2   -1    0    0    0  501 -0.00000000000E+00 -0.00000000000E+00 -0.46479057172E+00  0.46479756675E+00  0.25500000000E-02 0. -1.
         31    1    1    2    0    0 -0.40784595694E+00 -0.12166034599E+00  0.57791316661E+02  0.58270716034E+02  0.74470750000E+01 0. -1.
        -31    1    1    2    0    0  0.40784595694E+00  0.12166034599E+00  0.61571274644E+02  0.62021463438E+02  0.74470750000E+01 0.  1.
<mgrwt>
<rscale>  0 0.14925825E+02</rscale>
<asrwt>0</asrwt>
<pdfrwt beam="1">  1        2 0.99465990E+00 0.14925825E+02</pdfrwt>
<pdfrwt beam="2">  1       -2 0.98720293E+00 0.14925825E+02</pdfrwt>
<totfact> 0.23294119E-13</totfact>
</mgrwt>
</event>
<event>
 4    1 -0.5010510E-019  0.1497745E+02  0.7818608E-02  0.1868757E+00
         -2   -1    0    0    0  501 -0.00000000000E+00  0.00000000000E+00  0.11982993464E+03  0.11982993467E+03  0.25500000000E-02 0. -1.
          2   -1    0    0  501    0  0.00000000000E+00 -0.00000000000E+00 -0.46800135161E+00  0.46800829865E+00  0.25500000000E-02 0.  1.
         31    1    1    2    0    0 -0.34970246481E+00  0.56233013520E+00  0.63122141992E+02  0.63563371864E+02  0.74470750000E+01 0. -1.
        -31    1    1    2    0    0  0.34970246481E+00 -0.56233013520E+00  0.56239791295E+02  0.56734571100E+02  0.74470750000E+01 0.  1.
<mgrwt>
<rscale>  0 0.14977448E+02</rscale>
<asrwt>0</asrwt>
<pdfrwt beam="2">  1        2 0.99399599E+00 0.14977448E+02</pdfrwt>
<pdfrwt beam="1">  1       -2 0.99470756E+00 0.14977448E+02</pdfrwt>
<totfact>-0.13097730E-13</totfact>
</mgrwt>
</event>
<event>
 4    1 -0.5010510E-019  0.1499462E+02  0.7818608E-02  0.1868233E+00
         -2   -1    0    0    0  501 -0.00000000000E+00  0.00000000000E+00  0.12015100844E+03  0.12015100847E+03  0.25500000000E-02 0.  1.
          2   -1    0    0  501    0  0.00000000000E+00 -0.00000000000E+00 -0.46782161948E+00  0.46782856919E+00  0.25500000000E-02 0. -1.
         31    1    1    2    0    0 -0.83250884756E+00  0.23912826332E+00  0.60017969946E+02  0.60484426886E+02  0.74470750000E+01 0. -1.
        -31    1    1    2    0    0  0.83250884756E+00 -0.23912826332E+00  0.59665216878E+02  0.60134410153E+02  0.74470750000E+01 0.  1.
<mgrwt>
<rscale>  0 0.14994620E+02</rscale>
<asrwt>0</asrwt>
<pdfrwt beam="2">  1        2 0.99362607E+00 0.14994620E+02</pdfrwt>
<pdfrwt beam="1">  1       -2 0.99736094E+00 0.14994620E+02</pdfrwt>
<totfact>-0.98755325E-14</totfact>
</mgrwt>
</event>
<event>
 4    1 -0.5010510E-019  0.1490507E+02  0.7818608E-02  0.1870979E+00
         -2   -1    0    0    0  501 -0.00000000000E+00  0.00000000000E+00  0.11975086447E+03  0.11975086450E+03  0.25500000000E-02 0.  1.
          2   -1    0    0  501    0  0.00000000000E+00 -0.00000000000E+00 -0.46379530729E+00  0.46380231733E+00  0.25500000000E-02 0. -1.
         31    1    1    2    0    0  0.12386850717E+00  0.17415091775E+00  0.61167735950E+02  0.61619773768E+02  0.74470750000E+01 0.  1.
        -31    1    1    2    0    0 -0.12386850717E+00 -0.17415091775E+00  0.58119333211E+02  0.58594893045E+02  0.74470750000E+01 0. -1.
<mgrwt>
<rscale>  0 0.14905075E+02</rscale>
<asrwt>0</asrwt>
<pdfrwt beam="2">  1        2 0.98509477E+00 0.14905075E+02</pdfrwt>
<pdfrwt beam="1">  1       -2 0.99401898E+00 0.14905075E+02</pdfrwt>
<totfact>-0.33503430E-13</totfact>
</mgrwt>
</event>
<event>
 4    1  0.5010510E-019  0.1490586E+02  0.7818608E-02  0.1870955E+00
         -2   -1    0    0    0  501 -0.00000000000E+00  0.00000000000E+00  0.11827499982E+03  0.11827499985E+03  0.25500000000E-02 0.  1.
          2   -1    0    0  501    0  0.00000000000E+00 -0.00000000000E+00 -0.46963246875E+00  0.46963939166E+00  0.25500000000E-02 0. -1.
         31    1    1    2    0    0  0.19595774066E+00  0.17472180088E+00  0.57823856149E+02  0.58302025635E+02  0.74470750000E+01 0. -1.
        -31    1    1    2    0    0 -0.19595774066E+00 -0.17472180088E+00  0.59981511202E+02  0.60442613604E+02  0.74470750000E+01 0. -1.
<mgrwt>
<rscale>  0 0.14905864E+02</rscale>
<asrwt>0</asrwt>
<pdfrwt beam="2">  1        2 0.99739559E+00 0.14905864E+02</pdfrwt>
<pdfrwt beam="1">  1       -2 0.98186376E+00 0.14905864E+02</pdfrwt>
<totfact> 0.67466382E-13</totfact>
</mgrwt>
</event>
<event>
 4    1 -0.5010510E-019  0.1496628E+02  0.7818608E-02  0.1869099E+00
         -2   -1    0    0    0  501 -0.00000000000E+00  0.00000000000E+00  0.11942150442E+03  0.11942150445E+03  0.25500000000E-02 0. -1.
          2   -1    0    0  501    0  0.00000000000E+00 -0.00000000000E+00 -0.46890186064E+00  0.46890879434E+00  0.25500000000E-02 0.  1.
         31    1    1    2    0    0 -0.24451361283E-01  0.71371651469E+00  0.60827897199E+02  0.61286230043E+02  0.74470750000E+01 0. -1.
        -31    1    1    2    0    0  0.24451361283E-01 -0.71371651469E+00  0.58124705365E+02  0.58604183203E+02  0.74470750000E+01 0. -1.
<mgrwt>
<rscale>  0 0.14966280E+02</rscale>
<asrwt>0</asrwt>
<pdfrwt beam="2">  1        2 0.99588784E+00 0.14966280E+02</pdfrwt>
<pdfrwt beam="1">  1       -2 0.99133782E+00 0.14966280E+02</pdfrwt>
<totfact>-0.50064042E-14</totfact>
</mgrwt>
</event>
<event>
 4    1  0.5010510E-019  0.1491688E+02  0.7818608E-02  0.1870616E+00
         -2   -1    0    0    0  501 -0.00000000000E+00  0.00000000000E+00  0.11851900295E+03  0.11851900297E+03  0.25500000000E-02 0.  1.
          2   -1    0    0  501    0  0.00000000000E+00 -0.00000000000E+00 -0.46935875580E+00  0.46936568276E+00  0.25500000000E-02 0. -1.
         31    1    1    2    0    0 -0.36892662930E-01  0.35051652905E+00  0.60720639405E+02  0.61176622976E+02  0.74470750000E+01 0.  1.
        -31    1    1    2    0    0  0.36892662930E-01 -0.35051652905E+00  0.57329004784E+02  0.57811745680E+02  0.74470750000E+01 0.  1.
<mgrwt>
<rscale>  0 0.14916882E+02</rscale>
<asrwt>0</asrwt>
<pdfrwt beam="2">  1        2 0.99682470E+00 0.14916882E+02</pdfrwt>
<pdfrwt beam="1">  1       -2 0.98387908E+00 0.14916882E+02</pdfrwt>
<totfact> 0.49838925E-13</totfact>
</mgrwt>
</event>
<event>
 4    1 -0.5010510E-019  0.1495262E+02  0.7818608E-02  0.1869518E+00
          2   -1    0    0  501    0  0.00000000000E+00  0.00000000000E+00  0.11899590450E+03  0.11899590453E+03  0.25500000000E-02 0.  1.
         -2   -1    0    0    0  501 -0.00000000000E+00 -0.00000000000E+00 -0.46972033971E+00  0.46972726133E+00  0.25500000000E-02 0. -1.
         31    1    1    2    0    0 -0.47748074400E-01  0.19071491345E-01  0.54001812146E+02  0.54512909340E+02  0.74470750000E+01 0. -1.
        -31    1    1    2    0    0  0.47748074400E-01 -0.19071491345E-01  0.64524372013E+02  0.64952722447E+02  0.74470750000E+01 0.  1.
<mgrwt>
<rscale>  0 0.14952620E+02</rscale>
<asrwt>0</asrwt>
<pdfrwt beam="1">  1        2 0.98782543E+00 0.14952620E+02</pdfrwt>
<pdfrwt beam="2">  1       -2 0.99760537E+00 0.14952620E+02</pdfrwt>
<totfact>-0.15608904E-13</totfact>
</mgrwt>
</event>
<event>
 4    1  0.5010510E-019  0.1492697E+02  0.7818608E-02  0.1870305E+00
          2   -1    0    0  501    0  0.00000000000E+00  0.00000000000E+00  0.12030913818E+03  0.12030913821E+03  0.25500000000E-02 0. -1.
         -2   -1    0    0    0  501 -0.00000000000E+00 -0.00000000000E+00 -0.46300024129E+00  0.46300726337E+00  0.25500000000E-02 0.  1.
         31    1    1    2    0    0 -0.21713389986E+00 -0.26231937522E+00  0.62825662551E+02  0.63266410990E+02  0.74470750000E+01 0. -1.
        -31    1    1    2    0    0  0.21713389986E+00  0.26231937522E+00  0.57020475392E+02  0.57505734484E+02  0.74470750000E+01 0. -1.
<mgrwt>
<rscale>  0 0.14926967E+02</rscale>
<asrwt>0</asrwt>
<pdfrwt beam="1">  1        2 0.99862860E+00 0.14926967E+02</pdfrwt>
<pdfrwt beam="2">  1       -2 0.98343017E+00 0.14926967E+02</pdfrwt>
<totfact> 0.29188618E-13</totfact>
</mgrwt>
</event>
<event>
 4    1 -0.5010510E-019  0.1489899E+02  0.7818608E-02  0.1871167E+00
          2   -1    0    0  501    0  0.00000000000E+00  0.00000000000E+00  0.11881176494E+03  0.11881176496E+03  0.25500000000E-02 0. -1.
         -2   -1    0    0    0  501 -0.00000000000E+00 -0.00000000000E+00 -0.46707939974E+00  0.46708636050E+00  0.25500000000E-02 0.  1.
         31    1    1    2    0    0  0.44664632147E-01 -0.18229512895E+00  0.58947021953E+02  0.59415869510E+02  0.74470750000E+01 0.  1.
        -31    1    1    2    0    0 -0.44664632147E-01  0.18229512895E+00  0.59397663583E+02  0.59862981813E+02  0.74470750000E+01 0. -1.
<mgrwt>
<rscale>  0 0.14898986E+02</rscale>
<asrwt>0</asrwt>
<pdfrwt beam="1">  1        2 0.98628100E+00 0.14898986E+02</pdfrwt>
<pdfrwt beam="2">  1       -2 0.99201247E+00 0.14898986E+02</pdfrwt>
<totfact>-0.18860180E-13</totfact>
</mgrwt>
</event>
<event>
 4    1  0.5010510E-019  0.1490389E+02  0.7818608E-02  0.1871016E+00
          2   -1    0    0  501    0  0.00000000000E+00  0.00000000000E+00  0.11997691835E+03  0.11997691838E+03  0.25500000000E-02 0. -1.
         -2   -1    0    0    0  501 -0.00000000000E+00 -0.00000000000E+00 -0.46284782233E+00  0.46285484672E+00  0.25500000000E-02 0.  1.
         31    1    1    2    0    0  0.13312790725E+00  0.23039665357E+00  0.59419141560E+02  0.59884589966E+02  0.74470750000E+01 0. -1.
        -31    1    1    2    0    0 -0.13312790725E+00 -0.23039665357E+00  0.60094928968E+02  0.60555183257E+02  0.74470750000E+01 0. -1.
<mgrwt>
<rscale>  0 0.14903889E+02</rscale>
<asrwt>0</asrwt>
<pdfrwt beam="1">  1        2 0.99588031E+00 0.14903889E+02</pdfrwt>
<pdfrwt beam="2">  1       -2 0.98309724E+00 0.14903889E+02</pdfrwt>
<totfact> 0.70149766E-13</totfact>
</mgrwt>
</event>
<event>
 4    1  0.5010510E-019  0.1489826E+02  0.7818608E-02  0.1871189E+00
         -2   -1    0    0    0  501 -0.00000000000E+00  0.00000000000E+00  0.11795909915E+03  0.11795909918E+03  0.25500000000E-02 0.  1.
          2   -1    0    0  501    0  0.00000000000E+00 -0.00000000000E+00 -0.47040985216E+00  0.47041676363E+00  0.25500000000E-02 0. -1.
         31    1    1    2    0    0  0.99719466114E-01 -0.13981924999E+00  0.58479046053E+02  0.58951566957E+02  0.74470750000E+01 0.  1.
        -31    1    1    2    0    0 -0.99719466114E-01  0.13981924999E+00  0.59009643247E+02  0.59477948986E+02  0.74470750000E+01 0. -1.
<mgrwt>
<rscale>  0 0.14898259E+02</rscale>
<asrwt>0</asrwt>
<pdfrwt beam="2">  1        2 0.99902941E+00 0.14898259E+02</pdfrwt>
<pdfrwt beam="1">  1       -2 0.97925810E+00 0.14898259E+02</pdfrwt>
<totfact> 0.47728008E-13</totfact>
</mgrwt>
</event>
<event>
 4    1  0.5010510E-019  0.1493722E+02  0.7818608E-02  0.1869990E+00
          2   -1    0    0  501    0  0.00000000000E+00  0.00000000000E+00  0.12030067394E+03  0.12030067397E+03  0.25500000000E-02 0. -1.
         -2   -1    0    0    0  501 -0.00000000000E+00 -0.00000000000E+00 -0.46366887731E+00  0.46367588927E+00  0.25500000000E-02 0.  1.
         31    1    1    2    0    0  0.11983716610E+00 -0.53529464272E+00  0.61069730437E+02  0.61524562599E+02  0.74470750000E+01 0. -1.
        -31    1    1    2    0    0 -0.11983716610E+00  0.53529464272E+00  0.58767274630E+02  0.59239787261E+02  0.74470750000E+01 0.  1.
<mgrwt>
<rscale>  0 0.14937216E+02</rscale>
<asrwt>0</asrwt>
<pdfrwt beam="1">  1        2 0.99856414E+00 0.14937216E+02</pdfrwt>
<pdfrwt beam="2">  1       -2 0.98484464E+00 0.14937216E+02</pdfrwt>
<totfact> 0.21253060E-13</totfact>
</mgrwt>
</event>
<event>
 4    1 -0.5010510E-019  0.1497385E+02  0.7818608E-02  0.1868867E+00
         -2   -1    0    0    0  501 -0.00000000000E+00  0.00000000000E+00  0.12029354947E+03  0.12029354949E+03  0.25500000000E-02 0.  1.
          2   -1    0    0  501    0  0.00000000000E+00 -0.00000000000E+00 -0.46597369827E+00  0.46598067554E+00  0.25500000000E-02 0. -1.
         31    1    1    2    0    0  0.37348226868E+00 -0.30546171789E+00  0.55059330119E+02  0.55562771304E+02  0.74470750000E+01 0. -1.
        -31    1    1    2    0    0 -0.37348226868E+00  0.30546171789E+00  0.64768245650E+02  0.65196758865E+02  0.74470750000E+01 0.  1.
<mgrwt>
<rscale>  0 0.14973851E+02</rscale>
<asrwt>0</asrwt>
<pdfrwt beam="2">  1        2 0.98972095E+00 0.14973851E+02</pdfrwt>
<pdfrwt beam="1">  1       -2 0.99852429E+00 0.14973851E+02</pdfrwt>
<totfact>-0.84528816E-14</totfact>
</mgrwt>
</event>
<event>
 4    1 -0.5010510E-019  0.1495404E+02  0.7818608E-02  0.1869474E+00
         -2   -1    0    0    0  501 -0.00000000000E+00  0.00000000000E+00  0.11963197499E+03  0.11963197502E+03  0.25500000000E-02 0.  1.
          2   -1    0    0  501    0  0.00000000000E+00 -0.00000000000E+00 -0.46731178100E+00  0.46731873829E+00  0.25500000000E-02 0. -1.
         31    1    1    2    0    0  0.54758448581E-01 -0.30078215956E+00  0.54807592273E+02  0.55312065277E+02  0.74470750000E+01 0. -1.
        -31    1    1    2    0    0 -0.54758448581E-01  0.30078215956E+00  0.64357070936E+02  0.64787228478E+02  0.74470750000E+01 0.  1.
<mgrwt>
<rscale>  0 0.14954043E+02</rscale>
<asrwt>0</asrwt>
<pdfrwt beam="2">  1        2 0.99253074E+00 0.14954043E+02</pdfrwt>
<pdfrwt beam="1">  1       -2 0.99306499E+00 0.14954043E+02</pdfrwt>
<totfact>-0.12785357E-13</totfact>
</mgrwt>
</event>
<event>
 4    1 -0.5010510E-019  0.1489773E+02  0.7818608E-02  0.1871206E+00
          2   -1    0    0  501    0  0.00000000000E+00  0.00000000000E+00  0.11866434069E+03  0.11866434072E+03  0.25500000000E-02 0.  1.
         -2   -1    0    0    0  501 -0.00000000000E+00 -0.00000000000E+00 -0.46758054295E+00  0.46758749625E+00  0.25500000000E-02 0. -1.
         31    1    1    2    0    0 -0.58871219582E-01 -0.13191708250E+00  0.58491546995E+02  0.58963894578E+02  0.74470750000E+01 0. -1.
        -31    1    1    2    0    0  0.58871219582E-01  0.13191708250E+00  0.59705213154E+02  0.60168033637E+02  0.74470750000E+01 0.  1.
<mgrwt>
<rscale>  0 0.14897725E+02</rscale>
<asrwt>0</asrwt>
<pdfrwt beam="1">  1        2 0.98506613E+00 0.14897725E+02</pdfrwt>
<pdfrwt beam="2">  1       -2 0.99306780E+00 0.14897725E+02</pdfrwt>
<totfact>-0.30176003E-13</totfact>
</mgrwt>
</event>
<event>
 4    1  0.5010510E-019  0.1492720E+02  0.7818608E-02  0.1870298E+00
         -2   -1    0    0    0  501 -0.00000000000E+00  0.00000000000E+00  0.11844205453E+03  0.11844205456E+03  0.25500000000E-02 0.  1.
          2   -1    0    0  501    0  0.00000000000E+00 -0.00000000000E+00 -0.47031348912E+00  0.47032040201E+00  0.25500000000E-02 0. -1.
         31    1    1    2    0    0 -0.15204335946E+00  0.44765397213E+00  0.60190611694E+02  0.60651398776E+02  0.74470750000E+01 0. -1.
        -31    1    1    2    0    0  0.15204335946E+00 -0.44765397213E+00  0.57781129348E+02  0.58260976185E+02  0.74470750000E+01 0.  1.
<mgrwt>
<rscale>  0 0.14927198E+02</rscale>
<asrwt>0</asrwt>
<pdfrwt beam="2">  1        2 0.99884175E+00 0.14927198E+02</pdfrwt>
<pdfrwt beam="1">  1       -2 0.98325071E+00 0.14927198E+02</pdfrwt>
<totfact> 0.26296282E-13</totfact>
</mgrwt>
</event>
<event>
 4    1  0.5010510E-019  0.1490419E+02  0.7818608E-02  0.1871006E+00
          2   -1    0    0  501    0  0.00000000000E+00  0.00000000000E+00  0.11969223254E+03  0.11969223256E+03  0.25500000000E-02 0.  1.
         -2   -1    0    0    0  501 -0.00000000000E+00 -0.00000000000E+00 -0.46396716221E+00  0.46397416966E+00  0.25500000000E-02 0. -1.
         31    1    1    2    0    0  0.23571427123E+00 -0.36964392794E-01  0.58537499203E+02  0.59009784498E+02  0.74470750000E+01 0. -1.
        -31    1    1    2    0    0 -0.23571427123E+00  0.36964392794E-01  0.60690766172E+02  0.61146422235E+02  0.74470750000E+01 0.  1.
<mgrwt>
<rscale>  0 0.14904186E+02</rscale>
<asrwt>0</asrwt>
<pdfrwt beam="1">  1        2 0.99353559E+00 0.14904186E+02</pdfrwt>
<pdfrwt beam="2">  1       -2 0.98545651E+00 0.14904186E+02</pdfrwt>
<totfact> 0.48147358E-13</totfact>
</mgrwt>
</event>
<event>
 4    1  0.5010510E-019  0.1493411E+02  0.7818608E-02  0.1870086E+00
         -2   -1    0    0    0  501 -0.00000000000E+00  0.00000000000E+00  0.11865956059E+03  0.11865956062E+03  0.25500000000E-02 0.  1.
          2   -1    0    0  501    0  0.00000000000E+00 -0.00000000000E+00 -0.46988643796E+00  0.46989335713E+00  0.25500000000E-02 0. -1.
         31    1    1    2    0    0 -0.13763110241E-01  0.41429172248E+00  0.56261272465E+02  0.56753515595E+02  0.74470750000E+01 0. -1.
        -31    1    1    2    0    0  0.13763110241E-01 -0.41429172248E+00  0.61928401691E+02  0.62375938382E+02  0.74470750000E+01 0.  1.
<mgrwt>
<rscale>  0 0.14934113E+02</rscale>
<asrwt>0</asrwt>
<pdfrwt beam="2">  1        2 0.99794562E+00 0.14934113E+02</pdfrwt>
<pdfrwt beam="1">  1       -2 0.98504568E+00 0.14934113E+02</pdfrwt>
<totfact> 0.26838185E-13</totfact>
</mgrwt>
</event>
<event>
 4    1 -0.5010510E-019  0.1490504E+02  0.7818608E-02  0.1870980E+00
          2   -1    0    0  501    0  0.00000000000E+00  0.00000000000E+00  0.11854618168E+03  0.11854618171E+03  0.25500000000E-02 0. -1.
         -2   -1    0    0    0  501 -0.00000000000E+00 -0.00000000000E+00 -0.46850655475E+00  0.46851349430E+00  0.25500000000E-02 0.  1.
         31    1    1    2    0    0 -0.84160854862E-01 -0.31244085057E-01  0.61197593778E+02  0.61649107613E+02  0.74470750000E+01 0. -1.
        -31    1    1    2    0    0  0.84160854862E-01  0.31244085057E-01  0.56880081349E+02  0.57365587590E+02  0.74470750000E+01 0.  1.
<mgrwt>
<rscale>  0 0.14905043E+02</rscale>
<asrwt>0</asrwt>
<pdfrwt beam="1">  1        2 0.98409677E+00 0.14905043E+02</pdfrwt>
<pdfrwt beam="2">  1       -2 0.99502284E+00 0.14905043E+02</pdfrwt>
<totfact>-0.40252885E-13</totfact>
</mgrwt>
</event>
<event>
 4    1  0.5010510E-019  0.1494627E+02  0.7818608E-02  0.1869713E+00
          2   -1    0    0  501    0  0.00000000000E+00  0.00000000000E+00  0.12027353338E+03  0.12027353341E+03  0.25500000000E-02 0.  1.
         -2   -1    0    0    0  501 -0.00000000000E+00 -0.00000000000E+00 -0.46433567788E+00  0.46434267977E+00  0.25500000000E-02 0. -1.
         31    1    1    2    0    0  0.14934697949E+00 -0.27947188272E+00  0.55566546346E+02  0.56064252496E+02  0.74470750000E+01 0. -1.
        -31    1    1    2    0    0 -0.14934697949E+00  0.27947188272E+00  0.64242651361E+02  0.64673623595E+02  0.74470750000E+01 0.  1.
<mgrwt>
<rscale>  0 0.14946266E+02</rscale>
<asrwt>0</asrwt>
<pdfrwt beam="1">  1        2 0.99834524E+00 0.14946266E+02</pdfrwt>
<pdfrwt beam="2">  1       -2 0.98625462E+00 0.14946266E+02</pdfrwt>
<totfact> 0.15430179E-13</totfact>
</mgrwt>
</event>
<event>
 4    1 -0.5010510E-019  0.1492343E+02  0.7818608E-02  0.1870414E+00
         -2   -1    0    0    0  501 -0.00000000000E+00  0.00000000000E+00  0.12000239585E+03  0.12000239588E+03  0.25500000000E-02 0. -1.
          2   -1    0    0  501    0  0.00000000000E+00 -0.00000000000E+00 -0.46396376473E+00  0.46397077222E+00  0.25500000000E-02 0.  1.
         31    1    1    2    0    0  0.36823630773E+00  0.84239313533E-01  0.57550188888E+02  0.58031249008E+02  0.74470750000E+01 0.  1.
        -31    1    1    2    0    0 -0.36823630773E+00 -0.84239313533E-01  0.61988243197E+02  0.62435117642E+02  0.74470750000E+01 0.  1.
<mgrwt>
<rscale>  0 0.14923430E+02</rscale>
<asrwt>0</asrwt>
<pdfrwt beam="2">  1        2 0.98545916E+00 0.14923430E+02</pdfrwt>
<pdfrwt beam="1">  1       -2 0.99610021E+00 0.14923430E+02</pdfrwt>
<totfact>-0.29926263E-13</totfact>
</mgrwt>
</event>
<event>
 4    1  0.5010510E-019  0.1492034E+02  0.7818608E-02  0.1870509E+00
          2   -1    0    0  501    0  0.00000000000E+00  0.00000000000E+00  0.11976647637E+03  0.11976647639E+03  0.25500000000E-02 0.  1.
         -2   -1    0    0    0  501 -0.00000000000E+00 -0.00000000000E+00 -0.46468546259E+00  0.46469245921E+00  0.25500000000E-02 0. -1.
         31    1    1    2    0    0  0.34954025224E+00 -0.35828954633E-01  0.61809750568E+02  0.62257751754E+02  0.74470750000E+01 0.  1.
        -31    1    1    2    0    0 -0.34954025224E+00  0.35828954633E-01  0.57492040336E+02  0.57973417100E+02  0.74470750000E+01 0. -1.
<mgrwt>
<rscale>  0 0.14920344E+02</rscale>
<asrwt>0</asrwt>
<pdfrwt beam="1">  1        2 0.99415543E+00 0.14920344E+02</pdfrwt>
<pdfrwt beam="2">  1       -2 0.98697861E+00 0.14920344E+02</pdfrwt>
<totfact> 0.26804397E-13</totfact>
</mgrwt>
</event>
<event>
 4    1 -0.5010510E-019  0.1499633E+02  0.7818608E-02  0.1868180E+00
         -2   -1    0    0    0  501 -0.00000000000E+00  0.00000000000E+00  0.12026416261E+03  0.12026416264E+03  0.25500000000E-02 0.  1.
          2   -1    0    0  501    0  0.00000000000E+00 -0.00000000000E+00 -0.46748807807E+00  0.46749503274E+00  0.25500000000E-02 0. -1.
         31    1    1    2    0    0  0.40389071619E+00  0.44979383657E+00  0.64978067660E+02  0.65406220232E+02  0.74470750000E+01 0.  1.
        -31    1    1    2    0    0 -0.40389071619E+00 -0.44979383657E+00  0.54818606877E+02  0.55325437442E+02  0.74470750000E+01 0. -1.
<mgrwt>
<rscale>  0 0.14996331E+02</rscale>
<asrwt>0</asrwt>
<pdfrwt beam="2">  1        2 0.99292403E+00 0.14996331E+02</pdfrwt>
<pdfrwt beam="1">  1       -2 0.99829382E+00 0.14996331E+02</pdfrwt>
<totfact>-0.73876232E-14</totfact>
</mgrwt>
</event>
<event>
 4    1 -0.5010510E-019  0.1492325E+02  0.7818608E-02  0.1870420E+00
          2   -1    0    0  501    0  0.00000000000E+00  0.00000000000E+00  0.11879330690E+03  0.11879330693E+03  0.25500000000E-02 0. -1.
         -2   -1    0    0    0  501 -0.00000000000E+00 -0.00000000000E+00 -0.46867497217E+00  0.46868190923E+00  0.25500000000E-02 0.  1.
         31    1    1    2    0    0  0.44478530408E+00 -0.13760025253E+00  0.59057734771E+02  0.59527235197E+02  0.74470750000E+01 0.  1.
        -31    1    1    2    0    0 -0.44478530408E+00  0.13760025253E+00  0.59266897158E+02  0.59734753641E+02  0.74470750000E+01 0.  1.
<mgrwt>
<rscale>  0 0.14923252E+02</rscale>
<asrwt>0</asrwt>
<pdfrwt beam="1">  1        2 0.98614157E+00 0.14923252E+02</pdfrwt>
<pdfrwt beam="2">  1       -2 0.99538727E+00 0.14923252E+02</pdfrwt>
<totfact>-0.28581505E-13</totfact>
</mgrwt>
</event>
<event>
 4    1 -0.5010510E-019  0.1496420E+02  0.7818608E-02  0.1869163E+00
          2   -1    0    0  501    0  0.00000000000E+00  0.00000000000E+00  0.11894077020E+03  0.11894077023E+03  0.25500000000E-02 0. -1.
         -2   -1    0    0    0  501 -0.00000000000E+00 -0.00000000000E+00 -0.47066644148E+00  0.47067334919E+00  0.25500000000E-02 0.  1.
         31    1    1    2    0    0  0.26000571373E+00 -0.61370611715E+00  0.56996735487E+02  0.57485050407E+02  0.74470750000E+01 0. -1.
        -31    1    1    2    0    0 -0.26000571373E+00  0.61370611715E+00  0.61473368270E+02  0.61926393167E+02  0.74470750000E+01 0. -1.
<mgrwt>
<rscale>  0 0.14964203E+02</rscale>
<asrwt>0</asrwt>
<pdfrwt beam="1">  1        2 0.98737736E+00 0.14964203E+02</pdfrwt>
<pdfrwt beam="2">  1       -2 0.99960496E+00 0.14964203E+02</pdfrwt>
<totfact>-0.32647384E-14</totfact>
</mgrwt>
</event>
<event>
 4    1 -0.5010510E-019  0.1493877E+02  0.7818608E-02  0.1869943E+00
         -2   -1    0    0    0  501 -0.00000000000E+00  0.00000000000E+00  0.11992253351E+03  0.11992253354E+03  0.25500000000E-02 0. -1.
          2   -1    0    0  501    0  0.00000000000E+00 -0.00000000000E+00 -0.46522765678E+00  0.46523464525E+00  0.25500000000E-02 0.  1.
         31    1    1    2    0    0 -0.41819011781E+00 -0.34137757213E+00  0.58089853946E+02  0.58567751187E+02  0.74470750000E+01 0.  1.
        -31    1    1    2    0    0  0.41819011781E+00  0.34137757213E+00  0.61367451908E+02  0.61820016995E+02  0.74470750000E+01 0. -1.
<mgrwt>
<rscale>  0 0.14938769E+02</rscale>
<asrwt>0</asrwt>
<pdfrwt beam="2">  1        2 0.98813072E+00 0.14938769E+02</pdfrwt>
<pdfrwt beam="1">  1       -2 0.99545030E+00 0.14938769E+02</pdfrwt>
<totfact>-0.21559821E-13</totfact>
</mgrwt>
</event>
<event>
 4    1 -0.5010510E-019  0.1499905E+02  0.7818608E-02  0.1868098E+00
          2   -1    0    0  501    0  0.00000000000E+00  0.00000000000E+00  0.11953082830E+03  0.11953082833E+03  0.25500000000E-02 0. -1.
         -2   -1    0    0    0  501 -0.00000000000E+00 -0.00000000000E+00 -0.47052673692E+00  0.47053364668E+00  0.25500000000E-02 0.  1.
         31    1    1    2    0    0 -0.77967173808E+00  0.28563669043E+00  0.57071161634E+02  0.57560975431E+02  0.74470750000E+01 0.  1.
        -31    1    1    2    0    0  0.77967173808E+00 -0.28563669043E+00  0.61989139932E+02  0.62440386545E+02  0.74470750000E+01 0.  1.
<mgrwt>
<rscale>  0 0.14999049E+02</rscale>
<asrwt>0</asrwt>
<pdfrwt beam="1">  1        2 0.99225522E+00 0.14999049E+02</pdfrwt>
<pdfrwt beam="2">  1       -2 0.99932886E+00 0.14999049E+02</pdfrwt>
<totfact>-0.33303576E-14</totfact>
</mgrwt>
</event>
<event>
 4    1  0.5010510E-019  0.1493241E+02  0.7818608E-02  0.1870138E+00
         -2   -1    0    0    0  501 -0.00000000000E+00  0.00000000000E+00  0.11849737463E+03  0.11849737465E+03  0.25500000000E-02 0.  1.
          2   -1    0    0  501    0  0.00000000000E+00 -0.00000000000E+00 -0.47042235961E+00  0.47042927090E+00  0.25500000000E-02 0. -1.
         31    1    1    2    0    0 -0.48179612919E+00 -0.16336319717E+00  0.57716865706E+02  0.58197545722E+02  0.74470750000E+01 0. -1.
        -31    1    1    2    0    0  0.48179612919E+00  0.16336319717E+00  0.60310086561E+02  0.60770258203E+02  0.74470750000E+01 0.  1.
<mgrwt>
<rscale>  0 0.14932411E+02</rscale>
<asrwt>0</asrwt>
<pdfrwt beam="2">  1        2 0.99907390E+00 0.14932411E+02</pdfrwt>
<pdfrwt beam="1">  1       -2 0.98370904E+00 0.14932411E+02</pdfrwt>
<totfact> 0.19399286E-13</totfact>
</mgrwt>
</event>
<event>
 4    1 -0.5010510E-019  0.1494169E+02  0.7818608E-02  0.1869853E+00
          2   -1    0    0  501    0  0.00000000000E+00  0.00000000000E+00  0.11926645503E+03  0.11926645505E+03  0.25500000000E-02 0. -1.
         -2   -1    0    0    0  501 -0.00000000000E+00 -0.00000000000E+00 -0.46796970771E+00  0.46797665523E+00  0.25500000000E-02 0.  1.
         31    1    1    2    0    0  0.31876410314E+00 -0.35008628199E+00  0.56505415408E+02  0.56996009224E+02  0.74470750000E+01 0.  1.
        -31    1    1    2    0    0 -0.31876410314E+00  0.35008628199E+00  0.62293069910E+02  0.62738422484E+02  0.74470750000E+01 0. -1.
<mgrwt>
<rscale>  0 0.14941687E+02</rscale>
<asrwt>0</asrwt>
<pdfrwt beam="1">  1        2 0.99004806E+00 0.14941687E+02</pdfrwt>
<pdfrwt beam="2">  1       -2 0.99391078E+00 0.14941687E+02</pdfrwt>
<totfact>-0.17285965E-13</totfact>
</mgrwt>
</event>
<event>
 4    1 -0.5010510E-019  0.1495258E+02  0.7818608E-02  0.1869519E+00
         -2   -1    0    0    0  501 -0.00000000000E+00  0.00000000000E+00  0.11989991159E+03  0.11989991162E+03  0.25500000000E-02 0.  1.
          2   -1    0    0  501    0  0.00000000000E+00 -0.00000000000E+00 -0.46617616403E+00  0.46618313827E+00  0.25500000000E-02 0. -1.
         31    1    1    2    0    0 -0.15093974134E+00  0.28325504666E+00  0.64361850014E+02  0.64792049508E+02  0.74470750000E+01 0.  1.
        -31    1    1    2    0    0  0.15093974134E+00 -0.28325504666E+00  0.55071885417E+02  0.55574045252E+02  0.74470750000E+01 0. -1.
<mgrwt>
<rscale>  0 0.14952579E+02</rscale>
<asrwt>0</asrwt>
<pdfrwt beam="2">  1        2 0.99013677E+00 0.14952579E+02</pdfrwt>
<pdfrwt beam="1">  1       -2 0.99527109E+00 0.14952579E+02</pdfrwt>
<totfact>-0.17471675E-13</totfact>
</mgrwt>
</event>
<event>
 4    1 -0.5010510E-019  0.1501065E+02  0.7818608E-02  0.1867744E+00
          2   -1    0    0  501    0  0.00000000000E+00  0.00000000000E+00  0.12002048340E+03  0.12002048342E+03  0.25500000000E-02 0. -1.
         -2   -1    0    0    0  501 -0.00000000000E+00 -0.00000000000E+00 -0.46933249127E+00  0.46933941861E+00  0.25500000000E-02 0.  1.
         31    1    1    2    0    0  0.56801889938E+00 -0.24295450523E+00  0.54160533266E+02  0.54673613033E+02  0.74470750000E+01 0.  1.
        -31    1    1    2    0    0 -0.56801889938E+00  0.24295450523E+00  0.65390617640E+02  0.65816209810E+02  0.74470750000E+01 0. -1.
<mgrwt>
<rscale>  0 0.15010654E+02</rscale>
<asrwt>0</asrwt>
<pdfrwt beam="1">  1        2 0.99629416E+00 0.15010654E+02</pdfrwt>
<pdfrwt beam="2">  1       -2 0.99681833E+00 0.15010654E+02</pdfrwt>
<totfact>-0.83853851E-14</totfact>
</mgrwt>
</event>
<event>
 4    1  0.5010510E-019  0.1490872E+02  0.7818608E-02  0.1870867E+00
         -2   -1    0    0    0  501 -0.00000000000E+00  0.00000000000E+00  0.11851760968E+03  0.11851760971E+03  0.25500000000E-02 0.  1.
          2   -1    0    0  501    0  0.00000000000E+00 -0.00000000000E+00 -0.46885102602E+00  0.46885796048E+00  0.25500000000E-02 0. -1.
         31    1    1    2    0    0  0.28105626696E+00  0.15718062570E+00  0.58466128418E+02  0.58939382390E+02  0.74470750000E+01 0. -1.
        -31    1    1    2    0    0 -0.28105626696E+00 -0.15718062570E+00  0.59582630239E+02  0.60047085280E+02  0.74470750000E+01 0.  1.
<mgrwt>
<rscale>  0 0.14908725E+02</rscale>
<asrwt>0</asrwt>
<pdfrwt beam="2">  1        2 0.99575060E+00 0.14908725E+02</pdfrwt>
<pdfrwt beam="1">  1       -2 0.98386337E+00 0.14908725E+02</pdfrwt>
<totfact> 0.59774488E-13</totfact>
</mgrwt>
</event>
<event>
 4    1  0.5010510E-019  0.1493796E+02  0.7818608E-02  0.1869968E+00
          2   -1    0    0  501    0  0.00000000000E+00  0.00000000000E+00  0.11988374836E+03  0.11988374839E+03  0.25500000000E-02 0. -1.
         -2   -1    0    0    0  501 -0.00000000000E+00 -0.00000000000E+00 -0.46532776412E+00  0.46533475108E+00  0.25500000000E-02 0.  1.
         31    1    1    2    0    0 -0.24616159271E+00 -0.19761159647E+00  0.63548469002E+02  0.63984111187E+02  0.74470750000E+01 0. -1.
        -31    1    1    2    0    0  0.24616159271E+00  0.19761159647E+00  0.55869951597E+02  0.56364971954E+02  0.74470750000E+01 0.  1.
<mgrwt>
<rscale>  0 0.14937960E+02</rscale>
<asrwt>0</asrwt>
<pdfrwt beam="1">  1        2 0.99513042E+00 0.14937960E+02</pdfrwt>
<pdfrwt beam="2">  1       -2 0.98834128E+00 0.14937960E+02</pdfrwt>
<totfact> 0.12100976E-13</totfact>
</mgrwt>
</event>
<event>
 4    1  0.5010510E-019  0.1489870E+02  0.7818608E-02  0.1871176E+00
         -2   -1    0    0    0  501 -0.00000000000E+00  0.00000000000E+00  0.11823461675E+03  0.11823461678E+03  0.25500000000E-02 0. -1.
          2   -1    0    0  501    0  0.00000000000E+00 -0.00000000000E+00 -0.46934123194E+00  0.46934815915E+00  0.25500000000E-02 0.  1.
         31    1    1    2    0    0  0.13316266243E+00 -0.54103362668E-01  0.59798298147E+02  0.60260401980E+02  0.74470750000E+01 0.  1.
        -31    1    1    2    0    0 -0.13316266243E+00  0.54103362668E-01  0.57966977375E+02  0.58443562961E+02  0.74470750000E+01 0.  1.
<mgrwt>
<rscale>  0 0.14898697E+02</rscale>
<asrwt>0</asrwt>
<pdfrwt beam="2">  1        2 0.99677817E+00 0.14898697E+02</pdfrwt>
<pdfrwt beam="1">  1       -2 0.98152744E+00 0.14898697E+02</pdfrwt>
<totfact> 0.83287105E-13</totfact>
</mgrwt>
</event>
<event>
 4    1  0.5010510E-019  0.1492627E+02  0.7818608E-02  0.1870327E+00
          2   -1    0    0  501    0  0.00000000000E+00  0.00000000000E+00  0.12023428887E+03  0.12023428890E+03  0.25500000000E-02 0. -1.
         -2   -1    0    0    0  501 -0.00000000000E+00 -0.00000000000E+00 -0.46324493100E+00  0.46325194937E+00  0.25500000000E-02 0.  1.
         31    1    1    2    0    0  0.62401906297E-01 -0.17043106644E+00  0.63559949247E+02  0.63994992110E+02  0.74470750000E+01 0. -1.
        -31    1    1    2    0    0 -0.62401906297E-01  0.17043106644E+00  0.56211094694E+02  0.56702548739E+02  0.74470750000E+01 0.  1.
<mgrwt>
<rscale>  0 0.14926265E+02</rscale>
<asrwt>0</asrwt>
<pdfrwt beam="1">  1        2 0.99801172E+00 0.14926265E+02</pdfrwt>
<pdfrwt beam="2">  1       -2 0.98394555E+00 0.14926265E+02</pdfrwt>
<totfact> 0.34969117E-13</totfact>
</mgrwt>
</event>
<event>
 4    1 -0.5010510E-019  0.1490704E+02  0.7818608E-02  0.1870919E+00
          2   -1    0    0  501    0  0.00000000000E+00  0.00000000000E+00  0.11820776212E+03  0.11820776215E+03  0.25500000000E-02 0.  1.
         -2   -1    0    0    0  501 -0.00000000000E+00 -0.00000000000E+00 -0.46997378747E+00  0.46998070536E+00  0.25500000000E-02 0. -1.
         31    1    1    2    0    0 -0.16561580735E+00 -0.26192964209E+00  0.58869890423E+02  0.59339859793E+02  0.74470750000E+01 0.  1.
        -31    1    1    2    0    0  0.16561580735E+00  0.26192964209E+00  0.58867897911E+02  0.59337883061E+02  0.74470750000E+01 0. -1.
<mgrwt>
<rscale>  0 0.14907040E+02</rscale>
<asrwt>0</asrwt>
<pdfrwt beam="1">  1        2 0.98131061E+00 0.14907040E+02</pdfrwt>
<pdfrwt beam="2">  1       -2 0.99811535E+00 0.14907040E+02</pdfrwt>
<totfact>-0.36466001E-13</totfact>
</mgrwt>
</event>
<event>
 4    1  0.5010510E-019  0.1491202E+02  0.7818608E-02  0.1870765E+00
          2   -1    0    0  501    0  0.00000000000E+00  0.00000000000E+00  0.11991737099E+03  0.11991737102E+03  0.25500000000E-02 0. -1.
         -2   -1    0    0    0  501 -0.00000000000E+00 -0.00000000000E+00 -0.46358335907E+00  0.46359037232E+00  0.25500000000E-02 0.  1.
         31    1    1    2    0    0  0.51041922383E-01 -0.35420988151E+00  0.60304839340E+02  0.60763974885E+02  0.74470750000E+01 0. -1.
        -31    1    1    2    0    0 -0.51041922383E-01  0.35420988151E+00  0.59148948291E+02  0.59616986505E+02  0.74470750000E+01 0.  1.
<mgrwt>
<rscale>  0 0.14912025E+02</rscale>
<asrwt>0</asrwt>
<pdfrwt beam="1">  1        2 0.99539402E+00 0.14912025E+02</pdfrwt>
<pdfrwt beam="2">  1       -2 0.98465161E+00 0.14912025E+02</pdfrwt>
<totfact> 0.51106643E-13</totfact>
</mgrwt>
</event>
<event>
 4    1 -0.5010510E-019  0.1492162E+02  0.7818608E-02  0.1870470E+00
          2   -1    0    0  501    0  0.00000000000E+00  0.00000000000E+00  0.11891421353E+03  0.11891421356E+03  0.25500000000E-02 0. -1.
         -2   -1    0    0    0  501 -0.00000000000E+00 -0.00000000000E+00 -0.46809591675E+00  0.46810286239E+00  0.25500000000E-02 0.  1.
         31    1    1    2    0    0  0.23818830321E+00  0.34724693559E+00  0.57897901095E+02  0.58376392415E+02  0.74470750000E+01 0.  1.
        -31    1    1    2    0    0 -0.23818830321E+00 -0.34724693559E+00  0.60548216519E+02  0.61005924006E+02  0.74470750000E+01 0. -1.
<mgrwt>
<rscale>  0 0.14921618E+02</rscale>
<asrwt>0</asrwt>
<pdfrwt beam="1">  1        2 0.98713652E+00 0.14921618E+02</pdfrwt>
<pdfrwt beam="2">  1       -2 0.99416627E+00 0.14921618E+02</pdfrwt>
<totfact>-0.24769343E-13</totfact>
</mgrwt>
</event>
<event>
 4    1  0.5010510E-019  0.1490203E+02  0.7818608E-02  0.1871073E+00
         -2   -1    0    0    0  501 -0.00000000000E+00  0.00000000000E+00  0.11813823564E+03  0.11813823567E+03  0.25500000000E-02 0.  1.
          2   -1    0    0  501    0  0.00000000000E+00 -0.00000000000E+00 -0.46993415525E+00  0.46994107372E+00  0.25500000000E-02 0. -1.
         31    1    1    2    0    0  0.78261820748E-01  0.20972693478E+00  0.59570862061E+02  0.60034961839E+02  0.74470750000E+01 0.  1.
        -31    1    1    2    0    0 -0.78261820748E-01 -0.20972693478E+00  0.58097439426E+02  0.58573214904E+02  0.74470750000E+01 0. -1.
<mgrwt>
<rscale>  0 0.14902027E+02</rscale>
<asrwt>0</asrwt>
<pdfrwt beam="2">  1        2 0.99802918E+00 0.14902027E+02</pdfrwt>
<pdfrwt beam="1">  1       -2 0.98073539E+00 0.14902027E+02</pdfrwt>
<totfact> 0.67611394E-13</totfact>
</mgrwt>
</event>
<event>
 4    1  0.5010510E-019  0.1493097E+02  0.7818608E-02  0.1870182E+00
          2   -1    0    0  501    0  0.00000000000E+00  0.00000000000E+00  0.12002341408E+03  0.12002341410E+03  0.25500000000E-02 0.  1.
         -2   -1    0    0    0  501 -0.00000000000E+00 -0.00000000000E+00 -0.46435121483E+00  0.46435821648E+00  0.25500000000E-02 0. -1.
         31    1    1    2    0    0 -0.19194098461E+00  0.41108225417E+00  0.57664641554E+02  0.58145297674E+02  0.74470750000E+01 0. -1.
        -31    1    1    2    0    0  0.19194098461E+00 -0.41108225417E+00  0.61894421308E+02  0.62342474647E+02  0.74470750000E+01 0. -1.
<mgrwt>
<rscale>  0 0.14930967E+02</rscale>
<asrwt>0</asrwt>
<pdfrwt beam="1">  1        2 0.99627720E+00 0.14930967E+02</pdfrwt>
<pdfrwt beam="2">  1       -2 0.98627959E+00 0.14930967E+02</pdfrwt>
<totfact> 0.27463684E-13</totfact>
</mgrwt>
</event>
<event>
 4    1  0.5010510E-019  0.1492957E+02  0.7818608E-02  0.1870225E+00
         -2   -1    0    0    0  501 -0.00000000000E+00  0.00000000000E+00  0.11862258385E+03  0.11862258388E+03  0.25500000000E-02 0.  1.
          2   -1    0    0  501    0  0.00000000000E+00 -0.00000000000E+00 -0.46974718887E+00  0.46975411009E+00  0.25500000000E-02 0. -1.
         31    1    1    2    0    0 -0.40830202841E+00  0.15632331625E-01  0.61562846493E+02  0.62012982102E+02  0.74470750000E+01 0.  1.
        -31    1    1    2    0    0  0.40830202841E+00 -0.15632331625E-01  0.56589990167E+02  0.57079355884E+02  0.74470750000E+01 0. -1.
<mgrwt>
<rscale>  0 0.14929573E+02</rscale>
<asrwt>0</asrwt>
<pdfrwt beam="2">  1        2 0.99764982E+00 0.14929573E+02</pdfrwt>
<pdfrwt beam="1">  1       -2 0.98473878E+00 0.14929573E+02</pdfrwt>
<totfact> 0.32366426E-13</totfact>
</mgrwt>
</event>
<event>
 4    1  0.5010510E-019  0.1493420E+02  0.7818608E-02  0.1870083E+00
          2   -1    0    0  501    0  0.00000000000E+00  0.00000000000E+00  0.11976397323E+03  0.11976397326E+03  0.25500000000E-02 0. -1.
         -2   -1    0    0    0  501 -0.00000000000E+00 -0.00000000000E+00 -0.46555858219E+00  0.46556556568E+00  0.25500000000E-02 0.  1.
         31    1    1    2    0    0 -0.34114820326E+00  0.42538679203E+00  0.59940028017E+02  0.60403337828E+02  0.74470750000E+01 0.  1.
        -31    1    1    2    0    0  0.34114820326E+00 -0.42538679203E+00  0.59358386635E+02  0.59826200999E+02  0.74470750000E+01 0.  1.
<mgrwt>
<rscale>  0 0.14934198E+02</rscale>
<asrwt>0</asrwt>
<pdfrwt beam="1">  1        2 0.99414195E+00 0.14934198E+02</pdfrwt>
<pdfrwt beam="2">  1       -2 0.98882580E+00 0.14934198E+02</pdfrwt>
<totfact> 0.92098931E-14</totfact>
</mgrwt>
</event>
<event>
 4    1 -0.5010510E-019  0.1494038E+02  0.7818608E-02  0.1869893E+00
          2   -1    0    0  501    0  0.00000000000E+00  0.00000000000E+00  0.11906067781E+03  0.11906067783E+03  0.25500000000E-02 0. -1.
         -2   -1    0    0    0  501 -0.00000000000E+00 -0.00000000000E+00 -0.46869620486E+00  0.46870314161E+00  0.25500000000E-02 0.  1.
         31    1    1    2    0    0  0.32426202544E-01 -0.58627270343E+00  0.59322335669E+02  0.59790828748E+02  0.74470750000E+01 0. -1.
        -31    1    1    2    0    0 -0.32426202544E-01  0.58627270343E+00  0.59269645933E+02  0.59738552227E+02  0.74470750000E+01 0. -1.
<mgrwt>
<rscale>  0 0.14940375E+02</rscale>
<asrwt>0</asrwt>
<pdfrwt beam="1">  1        2 0.98835255E+00 0.14940375E+02</pdfrwt>
<pdfrwt beam="2">  1       -2 0.99544098E+00 0.14940375E+02</pdfrwt>
<totfact>-0.20986622E-13</totfact>
</mgrwt>
</event>
<event>
 4    1 -0.5010510E-019  0.1499546E+02  0.7818608E-02  0.1868207E+00
          2   -1    0    0  501    0  0.00000000000E+00  0.00000000000E+00  0.11965016003E+03  0.11965016006E+03  0.25500000000E-02 0. -1.
         -2   -1    0    0    0  501 -0.00000000000E+00 -0.00000000000E+00 -0.46983247699E+00  0.46983939696E+00  0.25500000000E-02 0.  1.
         31    1    1    2    0    0  0.17421875795E+00 -0.45711425368E+00  0.65353867053E+02  0.65778614842E+02  0.74470750000E+01 0. -1.
        -31    1    1    2    0    0 -0.17421875795E+00  0.45711425368E+00  0.53826460502E+02  0.54341384615E+02  0.74470750000E+01 0.  1.
<mgrwt>
<rscale>  0 0.14995459E+02</rscale>
<asrwt>0</asrwt>
<pdfrwt beam="1">  1        2 0.99323620E+00 0.14995459E+02</pdfrwt>
<pdfrwt beam="2">  1       -2 0.99786405E+00 0.14995459E+02</pdfrwt>
<totfact>-0.86742239E-14</totfact>
</mgrwt>
</event>
<event>
 4    1  0.5010510E-019  0.1495646E+02  0.7818608E-02  0.1869400E+00
         -2   -1    0    0    0  501 -0.00000000000E+00  0.00000000000E+00  0.11918189220E+03  0.11918189223E+03  0.25500000000E-02 0. -1.
          2   -1    0    0  501    0  0.00000000000E+00 -0.00000000000E+00 -0.46922791981E+00  0.46923484870E+00  0.25500000000E-02 0.  1.
         31    1    1    2    0    0  0.48321966822E+00  0.20937119070E+00  0.62821563372E+02  0.63263615832E+02  0.74470750000E+01 0. -1.
        -31    1    1    2    0    0 -0.48321966822E+00 -0.20937119070E+00  0.55891100913E+02  0.56387511249E+02  0.74470750000E+01 0.  1.
<mgrwt>
<rscale>  0 0.14956455E+02</rscale>
<asrwt>0</asrwt>
<pdfrwt beam="2">  1        2 0.99656979E+00 0.14956455E+02</pdfrwt>
<pdfrwt beam="1">  1       -2 0.98935923E+00 0.14956455E+02</pdfrwt>
<totfact> 0.38512648E-14</totfact>
</mgrwt>
</event>
<event>
 4    1 -0.5010510E-019  0.1495338E+02  0.7818608E-02  0.1869495E+00
          2   -1    0    0  501    0  0.00000000000E+00  0.00000000000E+00  0.11914922916E+03  0.11914922919E+03  0.25500000000E-02 0.  1.
         -2   -1    0    0    0  501 -0.00000000000E+00 -0.00000000000E+00 -0.46916337074E+00  0.46917030058E+00  0.25500000000E-02 0. -1.
         31    1    1    2    0    0 -0.48118358503E+00 -0.45163324630E+00  0.58698391902E+02  0.59172592036E+02  0.74470750000E+01 0. -1.
        -31    1    1    2    0    0  0.48118358503E+00  0.45163324630E+00  0.59981673891E+02  0.60445807456E+02  0.74470750000E+01 0. -1.
<mgrwt>
<rscale>  0 0.14953377E+02</rscale>
<asrwt>0</asrwt>
<pdfrwt beam="1">  1        2 0.98908862E+00 0.14953377E+02</pdfrwt>
<pdfrwt beam="2">  1       -2 0.99643216E+00 0.14953377E+02</pdfrwt>
<totfact>-0.17412248E-13</totfact>
</mgrwt>
</event>
<event>
 4    1 -0.5010510E-019  0.1497166E+02  0.7818608E-02  0.1868934E+00
         -2   -1    0    0    0  501 -0.00000000000E+00  0.00000000000E+00  0.12000097977E+03  0.12000097980E+03  0.25500000000E-02 0. -1.
          2   -1    0    0  501    0  0.00000000000E+00 -0.00000000000E+00 -0.46697334889E+00  0.46698031123E+00  0.25500000000E-02 0.  1.
         31    1    1    2    0    0  0.50992145301E+00  0.13209178100E+00  0.64183634197E+02  0.64616370162E+02  0.74470750000E+01 0. -1.
        -31    1    1    2    0    0 -0.50992145301E+00 -0.13209178100E+00  0.55350372225E+02  0.55851589947E+02  0.74470750000E+01 0.  1.
<mgrwt>
<rscale>  0 0.14971664E+02</rscale>
<asrwt>0</asrwt>
<pdfrwt beam="2">  1        2 0.99182660E+00 0.14971664E+02</pdfrwt>
<pdfrwt beam="1">  1       -2 0.99611338E+00 0.14971664E+02</pdfrwt>
<totfact>-0.14205581E-13</totfact>
</mgrwt>
</event>
<event>
 4    1 -0.5010510E-019  0.1493491E+02  0.7818608E-02  0.1870061E+00
         -2   -1    0    0    0  501 -0.00000000000E+00  0.00000000000E+00  0.12014233851E+03  0.12014233854E+03  0.25500000000E-02 0. -1.
          2   -1    0    0  501    0  0.00000000000E+00 -0.00000000000E+00 -0.46413669893E+00  0.46414370382E+00  0.25500000000E-02 0.  1.
         31    1    1    2    0    0  0.40165135441E-01  0.38545214845E+00  0.56672322691E+02  0.57160836871E+02  0.74470750000E+01 0.  1.
        -31    1    1    2    0    0 -0.40165135441E-01 -0.38545214845E+00  0.63005879123E+02  0.63445645372E+02  0.74470750000E+01 0. -1.
<mgrwt>
<rscale>  0 0.14934911E+02</rscale>
<asrwt>0</asrwt>
<pdfrwt beam="2">  1        2 0.98582948E+00 0.14934911E+02</pdfrwt>
<pdfrwt beam="1">  1       -2 0.99725878E+00 0.14934911E+02</pdfrwt>
<totfact>-0.22937121E-13</totfact>
</mgrwt>
</event>
<event>
 4    1 -0.5010510E-019  0.1490745E+02  0.7818608E-02  0.1870906E+00
         -2   -1    0    0    0  501 -0.00000000000E+00  0.00000000000E+00  0.12010458038E+03  0.12010458041E+03  0.25500000000E-02 0. -1.
          2   -1    0    0  501    0  0.00000000000E+00 -0.00000000000E+00 -0.46257688417E+00  0.46258391268E+00  0.25500000000E-02 0.  1.
         31    1    1    2    0    0  0.28700665819E-02 -0.32306607425E-01  0.57288503220E+02  0.57770516522E+02  0.74470750000E+01 0.  1.
        -31    1    1    2    0    0 -0.28700665819E-02  0.32306607425E-01  0.62353500276E+02  0.62796647798E+02  0.74470750000E+01 0. -1.
<mgrwt>
<rscale>  0 0.14907452E+02</rscale>
<asrwt>0</asrwt>
<pdfrwt beam="2">  1        2 0.98252799E+00 0.14907452E+02</pdfrwt>
<pdfrwt beam="1">  1       -2 0.99693367E+00 0.14907452E+02</pdfrwt>
<totfact>-0.42601850E-13</totfact>
</mgrwt>
</event>
<event>
 4    1  0.5010510E-019  0.1491238E+02  0.7818608E-02  0.1870754E+00
          2   -1    0    0  501    0  0.00000000000E+00  0.00000000000E+00  0.12021366588E+03  0.12021366590E+03  0.25500000000E-02 0. -1.
         -2   -1    0    0    0  501 -0.00000000000E+00 -0.00000000000E+00 -0.46246259676E+00  0.46246962700E+00  0.25500000000E-02 0.  1.
         31    1    1    2    0    0 -0.56394745310E-01  0.15756133233E+00  0.62532775494E+02  0.62974875490E+02  0.74470750000E+01 0. -1.
        -31    1    1    2    0    0  0.56394745310E-01 -0.15756133233E+00  0.57218427786E+02  0.57701260041E+02  0.74470750000E+01 0.  1.
<mgrwt>
<rscale>  0 0.14912377E+02</rscale>
<asrwt>0</asrwt>
<pdfrwt beam="1">  1        2 0.99783472E+00 0.14912377E+02</pdfrwt>
<pdfrwt beam="2">  1       -2 0.98228960E+00 0.14912377E+02</pdfrwt>
<totfact> 0.54051472E-13</totfact>
</mgrwt>
</event>
<event>
 4    1 -0.5010510E-019  0.1492748E+02  0.7818608E-02  0.1870290E+00
         -2   -1    0    0    0  501 -0.00000000000E+00  0.00000000000E+00  0.11993540643E+03  0.11993540645E+03  0.25500000000E-02 0.  1.
          2   -1    0    0  501    0  0.00000000000E+00 -0.00000000000E+00 -0.46447485964E+00  0.46448185942E+00  0.25500000000E-02 0. -1.
         31    1    1    2    0    0 -0.13068956392E+00  0.14700584691E+00  0.56041188579E+02  0.56534170498E+02  0.74470750000E+01 0. -1.
        -31    1    1    2    0    0  0.13068956392E+00 -0.14700584691E+00  0.63429742987E+02  0.63865717814E+02  0.74470750000E+01 0.  1.
<mgrwt>
<rscale>  0 0.14927479E+02</rscale>
<asrwt>0</asrwt>
<pdfrwt beam="2">  1        2 0.98653840E+00 0.14927479E+02</pdfrwt>
<pdfrwt beam="1">  1       -2 0.99555052E+00 0.14927479E+02</pdfrwt>
<totfact>-0.26662928E-13</totfact>
</mgrwt>
</event>
<event>
 4    1 -0.5010510E-019  0.1499709E+02  0.7818608E-02  0.1868157E+00
         -2   -1    0    0    0  501 -0.00000000000E+00  0.00000000000E+00  0.11966479070E+03  0.11966479073E+03  0.25500000000E-02 0.  1.
          2   -1    0    0  501    0  0.00000000000E+00 -0.00000000000E+00 -0.46987698212E+00  0.46988390144E+00  0.25500000000E-02 0. -1.
         31    1    1    2    0    0 -0.54429109646E+00 -0.64299416244E+00  0.61551889917E+02  0.62006481700E+02  0.74470750000E+01 0. -1.
        -31    1    1    2    0    0  0.54429109646E+00  0.64299416244E+00  0.57643023805E+02  0.58128192934E+02  0.74470750000E+01 0.  1.
<mgrwt>
<rscale>  0 0.14997086E+02</rscale>
<asrwt>0</asrwt>
<pdfrwt beam="2">  1        2 0.99795868E+00 0.14997086E+02</pdfrwt>
<pdfrwt beam="1">  1       -2 0.99335754E+00 0.14997086E+02</pdfrwt>
<totfact>-0.61087033E-14</totfact>
</mgrwt>
</event>
<event>
 4    1 -0.5010510E-019  0.1491833E+02  0.7818608E-02  0.1870571E+00
          2   -1    0    0  501    0  0.00000000000E+00  0.00000000000E+00  0.11891088083E+03  0.11891088086E+03  0.25500000000E-02 0. -1.
         -2   -1    0    0    0  501 -0.00000000000E+00 -0.00000000000E+00 -0.46790248999E+00  0.46790943850E+00  0.25500000000E-02 0.  1.
         31    1    1    2    0    0  0.91080349445E-01 -0.37617179304E+00  0.60616407871E+02  0.61073379063E+02  0.74470750000E+01 0.  1.
        -31    1    1    2    0    0 -0.91080349445E-01  0.37617179304E+00  0.57826570468E+02  0.58305411232E+02  0.74470750000E+01 0.  1.
<mgrwt>
<rscale>  0 0.14918326E+02</rscale>
<asrwt>0</asrwt>
<pdfrwt beam="1">  1        2 0.98710736E+00 0.14918326E+02</pdfrwt>
<pdfrwt beam="2">  1       -2 0.99375697E+00 0.14918326E+02</pdfrwt>
<totfact>-0.24167555E-13</totfact>
</mgrwt>
</event>
<event>
 4    1  0.5010510E-019  0.1491886E+02  0.7818608E-02  0.1870555E+00
          2   -1    0    0  501    0  0.00000000000E+00  0.00000000000E+00  0.12007507213E+03  0.12007507216E+03  0.25500000000E-02 0. -1.
         -2   -1    0    0    0  501 -0.00000000000E+00 -0.00000000000E+00 -0.46339921760E+00  0.46340623363E+00  0.25500000000E-02 0.  1.
         31    1    1    2    0    0  0.20432936276E+00 -0.91562254204E-01  0.56847567925E+02  0.57333716426E+02  0.74470750000E+01 0.  1.
        -31    1    1    2    0    0 -0.20432936276E+00  0.91562254204E-01  0.62764104990E+02  0.63204761967E+02  0.74470750000E+01 0. -1.
<mgrwt>
<rscale>  0 0.14918863E+02</rscale>
<asrwt>0</asrwt>
<pdfrwt beam="1">  1        2 0.99669648E+00 0.14918863E+02</pdfrwt>
<pdfrwt beam="2">  1       -2 0.98426698E+00 0.14918863E+02</pdfrwt>
<totfact> 0.46432970E-13</totfact>
</mgrwt>
</event>
<event>
 4    1  0.5010510E-019  0.1493410E+02  0.7818608E-02  0.1870086E+00
         -2   -1    0    0    0  501 -0.00000000000E+00  0.00000000000E+00  0.11906282420E+03  0.11906282422E+03  0.25500000000E-02 0.  1.
          2   -1    0    0  501    0  0.00000000000E+00 -0.00000000000E+00 -0.46829421453E+00  0.46830115722E+00  0.25500000000E-02 0. -1.
         31    1    1    2    0    0  0.53917946256E+00 -0.17062740474E-02  0.58617882826E+02  0.59091503877E+02  0.74470750000E+01 0. -1.
        -31    1    1    2    0    0 -0.53917946256E+00  0.17062740474E-02  0.59976647155E+02  0.60439621503E+02  0.74470750000E+01 0.  1.
<mgrwt>
<rscale>  0 0.14934102E+02</rscale>
<asrwt>0</asrwt>
<pdfrwt beam="2">  1        2 0.99459064E+00 0.14934102E+02</pdfrwt>
<pdfrwt beam="1">  1       -2 0.98836698E+00 0.14934102E+02</pdfrwt>
<totfact> 0.12550218E-13</totfact>
</mgrwt>
</event>
<event>
 4    1 -0.5010510E-019  0.1497853E+02  0.7818608E-02  0.1868724E+00
          2   -1    0    0  501    0  0.00000000000E+00  0.00000000000E+00  0.11972932520E+03  0.11972932523E+03  0.25500000000E-02 0. -1.
         -2   -1    0    0    0  501 -0.00000000000E+00 -0.00000000000E+00 -0.46846255941E+00  0.46846949962E+00  0.25500000000E-02 0.  1.
         31    1    1    2    0    0  0.24135784474E+00  0.46142478135E+00  0.64438758020E+02  0.64869743546E+02  0.74470750000E+01 0. -1.
        -31    1    1    2    0    0 -0.24135784474E+00 -0.46142478135E+00  0.54822104623E+02  0.55328051183E+02  0.74470750000E+01 0.  1.
<mgrwt>
<rscale>  0 0.14978535E+02</rscale>
<asrwt>0</asrwt>
<pdfrwt beam="1">  1        2 0.99387946E+00 0.14978535E+02</pdfrwt>
<pdfrwt beam="2">  1       -2 0.99496848E+00 0.14978535E+02</pdfrwt>
<totfact>-0.13194246E-13</totfact>
</mgrwt>
</event>
<event>
 4    1 -0.5010510E-019  0.1495997E+02  0.7818608E-02  0.1869292E+00
          2   -1    0    0  501    0  0.00000000000E+00  0.00000000000E+00  0.11954749402E+03  0.11954749405E+03  0.25500000000E-02 0. -1.
         -2   -1    0    0    0  501 -0.00000000000E+00 -0.00000000000E+00 -0.46801292576E+00  0.46801987263E+00  0.25500000000E-02 0.  1.
         31    1    1    2    0    0 -0.24436986384E+00 -0.41916137188E+00  0.63597637498E+02  0.64034005297E+02  0.74470750000E+01 0. -1.
        -31    1    1    2    0    0  0.24436986384E+00  0.41916137188E+00  0.55481843594E+02  0.55981508622E+02  0.74470750000E+01 0.  1.
<mgrwt>
<rscale>  0 0.14959972E+02</rscale>
<asrwt>0</asrwt>
<pdfrwt beam="1">  1        2 0.99237224E+00 0.14959972E+02</pdfrwt>
<pdfrwt beam="2">  1       -2 0.99401134E+00 0.14959972E+02</pdfrwt>
<totfact>-0.14427298E-13</totfact>
</mgrwt>
</event>
<event>
 4    1  0.5010510E-019  0.1490726E+02  0.7818608E-02  0.1870912E+00
          2   -1    0    0  501    0  0.00000000000E+00  0.00000000000E+00  0.11995725649E+03  0.11995725652E+03  0.25500000000E-02 0. -1.
         -2   -1    0    0    0  501 -0.00000000000E+00 -0.00000000000E+00 -0.46313316967E+00  0.46314018974E+00  0.25500000000E-02 0.  1.
         31    1    1    2    0    0  0.55910113332E-01  0.21269260195E+00  0.61541000124E+02  0.61990337848E+02  0.74470750000E+01 0. -1.
        -31    1    1    2    0    0 -0.55910113332E-01 -0.21269260195E+00  0.57953123194E+02  0.58430058858E+02  0.74470750000E+01 0.  1.
<mgrwt>
<rscale>  0 0.14907261E+02</rscale>
<asrwt>0</asrwt>
<pdfrwt beam="1">  1        2 0.99572009E+00 0.14907261E+02</pdfrwt>
<pdfrwt beam="2">  1       -2 0.98370036E+00 0.14907261E+02</pdfrwt>
<totfact> 0.62411048E-13</totfact>
</mgrwt>
</event>
<event>
 4    1 -0.5010510E-019  0.1494181E+02  0.7818608E-02  0.1869849E+00
          2   -1    0    0  501    0  0.00000000000E+00  0.00000000000E+00  0.11892913425E+03  0.11892913428E+03  0.25500000000E-02 0. -1.
         -2   -1    0    0    0  501 -0.00000000000E+00 -0.00000000000E+00 -0.46930463697E+00  0.46931156472E+00  0.25500000000E-02 0.  1.
         31    1    1    2    0    0  0.22310632865E+00  0.51924103738E+00  0.57711736073E+02  0.58192978909E+02  0.74470750000E+01 0. -1.
        -31    1    1    2    0    0 -0.22310632865E+00 -0.51924103738E+00  0.60748093541E+02  0.61205466934E+02  0.74470750000E+01 0. -1.
<mgrwt>
<rscale>  0 0.14941808E+02</rscale>
<asrwt>0</asrwt>
<pdfrwt beam="1">  1        2 0.98726989E+00 0.14941808E+02</pdfrwt>
<pdfrwt beam="2">  1       -2 0.99672377E+00 0.14941808E+02</pdfrwt>
<totfact>-0.20816340E-13</totfact>
</mgrwt>
</event>
<event>
 4    1 -0.5010510E-019  0.1502495E+02  0.7818608E-02  0.1867308E+00
         -2   -1    0    0    0  501 -0.00000000000E+00  0.00000000000E+00  0.12030764616E+03  0.12030764619E+03  0.25500000000E-02 0. -1.
          2   -1    0    0  501    0  0.00000000000E+00 -0.00000000000E+00 -0.46910444008E+00  0.46911137078E+00  0.25500000000E-02 0.  1.
         31    1    1    2    0    0 -0.53385164304E+00 -0.77063680655E+00  0.57384091750E+02  0.57872893402E+02  0.74470750000E+01 0.  1.
        -31    1    1    2    0    0  0.53385164304E+00  0.77063680655E+00  0.62454449975E+02  0.62903864161E+02  0.74470750000E+01 0.  1.
<mgrwt>
<rscale>  0 0.15024949E+02</rscale>
<asrwt>0</asrwt>
<pdfrwt beam="2">  1        2 0.99634512E+00 0.15024949E+02</pdfrwt>
<pdfrwt beam="1">  1       -2 0.99866673E+00 0.15024949E+02</pdfrwt>
<totfact>-0.42157403E-14</totfact>
</mgrwt>
</event>
<event>
 4    1  0.5010510E-019  0.1491532E+02  0.7818608E-02  0.1870664E+00
          2   -1    0    0  501    0  0.00000000000E+00  0.00000000000E+00  0.11999873016E+03  0.11999873018E+03  0.25500000000E-02 0. -1.
         -2   -1    0    0    0  501 -0.00000000000E+00 -0.00000000000E+00 -0.46347393619E+00  0.46348095110E+00  0.25500000000E-02 0.  1.
         31    1    1    2    0    0  0.96912985724E-01 -0.26745872934E+00  0.57528618565E+02  0.58009325168E+02  0.74470750000E+01 0.  1.
        -31    1    1    2    0    0 -0.96912985724E-01  0.26745872934E+00  0.62006637655E+02  0.62452885967E+02  0.74470750000E+01 0. -1.
<mgrwt>
<rscale>  0 0.14915322E+02</rscale>
<asrwt>0</asrwt>
<pdfrwt beam="1">  1        2 0.99606584E+00 0.14915322E+02</pdfrwt>
<pdfrwt beam="2">  1       -2 0.98442267E+00 0.14915322E+02</pdfrwt>
<totfact> 0.49682771E-13</totfact>
</mgrwt>
</event>
<event>
 4    1 -0.5010510E-019  0.1495873E+02  0.7818608E-02  0.1869330E+00
         -2   -1    0    0    0  501 -0.00000000000E+00  0.00000000000E+00  0.12011044808E+03  0.12011044811E+03  0.25500000000E-02 0. -1.
          2   -1    0    0  501    0  0.00000000000E+00 -0.00000000000E+00 -0.46574206292E+00  0.46574904367E+00  0.25500000000E-02 0.  1.
         31    1    1    2    0    0  0.31519574225E+00 -0.50775758234E+00  0.56974577504E+02  0.57462323082E+02  0.74470750000E+01 0.  1.
        -31    1    1    2    0    0 -0.31519574225E+00  0.50775758234E+00  0.62670128517E+02  0.63113874073E+02  0.74470750000E+01 0. -1.
<mgrwt>
<rscale>  0 0.14958731E+02</rscale>
<asrwt>0</asrwt>
<pdfrwt beam="2">  1        2 0.98922505E+00 0.14958731E+02</pdfrwt>
<pdfrwt beam="1">  1       -2 0.99700836E+00 0.14958731E+02</pdfrwt>
<totfact>-0.15447619E-13</totfact>
</mgrwt>
</event>
<event>
 4    1 -0.5010510E-019  0.1491592E+02  0.7818608E-02  0.1870645E+00
         -2   -1    0    0    0  501 -0.00000000000E+00  0.00000000000E+00  0.12009224949E+03  0.12009224951E+03  0.25500000000E-02 0. -1.
          2   -1    0    0  501    0  0.00000000000E+00 -0.00000000000E+00 -0.46314985086E+00  0.46315687067E+00  0.25500000000E-02 0.  1.
         31    1    1    2    0    0 -0.15308884849E+00 -0.13708194019E+00  0.62614101542E+02  0.63055744113E+02  0.74470750000E+01 0. -1.
        -31    1    1    2    0    0  0.15308884849E+00  0.13708194019E+00  0.57014998093E+02  0.57499662270E+02  0.74470750000E+01 0.  1.
<mgrwt>
<rscale>  0 0.14915915E+02</rscale>
<asrwt>0</asrwt>
<pdfrwt beam="2">  1        2 0.98373991E+00 0.14915915E+02</pdfrwt>
<pdfrwt beam="1">  1       -2 0.99683645E+00 0.14915915E+02</pdfrwt>
<totfact>-0.35410778E-13</totfact>
</mgrwt>
</event>
<event>
 4    1  0.5010510E-019  0.1489971E+02  0.7818608E-02  0.1871144E+00
         -2   -1    0    0    0  501 -0.00000000000E+00  0.00000000000E+00  0.11826988548E+03  0.11826988550E+03  0.25500000000E-02 0. -1.
          2   -1    0    0  501    0  0.00000000000E+00 -0.00000000000E+00 -0.46926502744E+00  0.46927195578E+00  0.25500000000E-02 0.  1.
         31    1    1    2    0    0  0.66963474161E-01 -0.17466711848E+00  0.58262012849E+02  0.58736326579E+02  0.74470750000E+01 0.  1.
        -31    1    1    2    0    0 -0.66963474161E-01  0.17466711848E+00  0.59538607600E+02  0.60002830881E+02  0.74470750000E+01 0. -1.
<mgrwt>
<rscale>  0 0.14899709E+02</rscale>
<asrwt>0</asrwt>
<pdfrwt beam="2">  1        2 0.99661815E+00 0.14899709E+02</pdfrwt>
<pdfrwt beam="1">  1       -2 0.98181843E+00 0.14899709E+02</pdfrwt>
<totfact> 0.81236435E-13</totfact>
</mgrwt>
</event>
<event>
 4    1  0.5010510E-019  0.1490412E+02  0.7818608E-02  0.1871008E+00
         -2   -1    0    0    0  501 -0.00000000000E+00  0.00000000000E+00  0.11867510572E+03  0.11867510575E+03  0.25500000000E-02 0. -1.
          2   -1    0    0  501    0  0.00000000000E+00 -0.00000000000E+00 -0.46793988481E+00  0.46794683276E+00  0.25500000000E-02 0.  1.
         31    1    1    2    0    0  0.18423237374E+00 -0.71964223995E-01  0.60603050509E+02  0.61059215336E+02  0.74470750000E+01 0.  1.
        -31    1    1    2    0    0 -0.18423237374E+00  0.71964223995E-01  0.57604115327E+02  0.58083837245E+02  0.74470750000E+01 0.  1.
<mgrwt>
<rscale>  0 0.14904124E+02</rscale>
<asrwt>0</asrwt>
<pdfrwt beam="2">  1        2 0.99382834E+00 0.14904124E+02</pdfrwt>
<pdfrwt beam="1">  1       -2 0.98515812E+00 0.14904124E+02</pdfrwt>
<totfact> 0.51433673E-13</totfact>
</mgrwt>
</event>
<event>
 4    1  0.5010510E-019  0.1491917E+02  0.7818608E-02  0.1870545E+00
         -2   -1    0    0    0  501 -0.00000000000E+00  0.00000000000E+00  0.11907447246E+03  0.11907447249E+03  0.25500000000E-02 0. -1.
          2   -1    0    0  501    0  0.00000000000E+00 -0.00000000000E+00 -0.46731259863E+00  0.46731955591E+00  0.25500000000E-02 0.  1.
         31    1    1    2    0    0  0.41456203579E+00 -0.37275912312E-01  0.60225603527E+02  0.60685710818E+02  0.74470750000E+01 0.  1.
        -31    1    1    2    0    0 -0.41456203579E+00  0.37275912312E-01  0.58381556337E+02  0.58856081229E+02  0.74470750000E+01 0. -1.
<mgrwt>
<rscale>  0 0.14919171E+02</rscale>
<asrwt>0</asrwt>
<pdfrwt beam="2">  1        2 0.99251438E+00 0.14919171E+02</pdfrwt>
<pdfrwt beam="1">  1       -2 0.98845518E+00 0.14919171E+02</pdfrwt>
<totfact> 0.13878459E-13</totfact>
</mgrwt>
</event>
<event>
 4    1  0.5010510E-019  0.1492227E+02  0.7818608E-02  0.1870450E+00
          2   -1    0    0  501    0  0.00000000000E+00  0.00000000000E+00  0.11993673990E+03  0.11993673993E+03  0.25500000000E-02 0. -1.
         -2   -1    0    0    0  501 -0.00000000000E+00 -0.00000000000E+00 -0.46414546817E+00  0.46415247292E+00  0.25500000000E-02 0.  1.
         31    1    1    2    0    0  0.27030587667E+00 -0.36862622547E+00  0.59532018873E+02  0.59997742855E+02  0.74470750000E+01 0. -1.
        -31    1    1    2    0    0 -0.27030587667E+00  0.36862622547E+00  0.59940575558E+02  0.60403149544E+02  0.74470750000E+01 0.  1.
<mgrwt>
<rscale>  0 0.14922268E+02</rscale>
<asrwt>0</asrwt>
<pdfrwt beam="1">  1        2 0.99555882E+00 0.14922268E+02</pdfrwt>
<pdfrwt beam="2">  1       -2 0.98584153E+00 0.14922268E+02</pdfrwt>
<totfact> 0.35279661E-13</totfact>
</mgrwt>
</event>
<event>
 4    1 -0.5010510E-019  0.1490533E+02  0.7818608E-02  0.1870971E+00
          2   -1    0    0  501    0  0.00000000000E+00  0.00000000000E+00  0.11840715824E+03  0.11840715826E+03  0.25500000000E-02 0. -1.
         -2   -1    0    0    0  501 -0.00000000000E+00 -0.00000000000E+00 -0.46907499457E+00  0.46908192571E+00  0.25500000000E-02 0.  1.
         31    1    1    2    0    0 -0.22624390631E+00 -0.24629796017E-01  0.57552833118E+02  0.58033088139E+02  0.74470750000E+01 0.  1.
        -31    1    1    2    0    0  0.22624390631E+00  0.24629796017E-01  0.60385250125E+02  0.60843152052E+02  0.74470750000E+01 0.  1.
<mgrwt>
<rscale>  0 0.14905335E+02</rscale>
<asrwt>0</asrwt>
<pdfrwt beam="1">  1        2 0.98295193E+00 0.14905335E+02</pdfrwt>
<pdfrwt beam="2">  1       -2 0.99622072E+00 0.14905335E+02</pdfrwt>
<totfact>-0.44638987E-13</totfact>
</mgrwt>
</event>
<event>
 4    1 -0.5010510E-019  0.1493448E+02  0.7818608E-02  0.1870074E+00
          2   -1    0    0  501    0  0.00000000000E+00  0.00000000000E+00  0.11958592104E+03  0.11958592106E+03  0.25500000000E-02 0.  1.
         -2   -1    0    0    0  501 -0.00000000000E+00 -0.00000000000E+00 -0.46626947094E+00  0.46627644379E+00  0.25500000000E-02 0. -1.
         31    1    1    2    0    0 -0.82990965321E-01  0.44031188808E+00  0.57017848170E+02  0.57503866809E+02  0.74470750000E+01 0.  1.
        -31    1    1    2    0    0  0.82990965321E-01 -0.44031188808E+00  0.62101803396E+02  0.62548330698E+02  0.74470750000E+01 0. -1.
<mgrwt>
<rscale>  0 0.14934481E+02</rscale>
<asrwt>0</asrwt>
<pdfrwt beam="1">  1        2 0.99267557E+00 0.14934481E+02</pdfrwt>
<pdfrwt beam="2">  1       -2 0.99032410E+00 0.14934481E+02</pdfrwt>
<totfact>-0.11332761E-14</totfact>
</mgrwt>
</event>
<event>
 4    1  0.5010510E-019  0.1489895E+02  0.7818608E-02  0.1871168E+00
         -2   -1    0    0    0  501 -0.00000000000E+00  0.00000000000E+00  0.11798269680E+03  0.11798269683E+03  0.25500000000E-02 0. -1.
          2   -1    0    0  501    0  0.00000000000E+00 -0.00000000000E+00 -0.47035943445E+00  0.47036634667E+00  0.25500000000E-02 0.  1.
         31    1    1    2    0    0 -0.11338428595E+00 -0.14863816891E+00  0.58982470118E+02  0.59451035791E+02  0.74470750000E+01 0.  1.
        -31    1    1    2    0    0  0.11338428595E+00  0.14863816891E+00  0.58529867245E+02  0.59002027381E+02  0.74470750000E+01 0.  1.
<mgrwt>
<rscale>  0 0.14898951E+02</rscale>
<asrwt>0</asrwt>
<pdfrwt beam="2">  1        2 0.99892356E+00 0.14898951E+02</pdfrwt>
<pdfrwt beam="1">  1       -2 0.97945280E+00 0.14898951E+02</pdfrwt>
<totfact> 0.50702751E-13</totfact>
</mgrwt>
</event>
<event>
 4    1 -0.5010510E-019  0.1497002E+02  0.7818608E-02  0.1868985E+00
         -2   -1    0    0    0  501 -0.00000000000E+00  0.00000000000E+00  0.12017073845E+03  0.12017073848E+03  0.25500000000E-02 0.  1.
          2   -1    0    0  501    0  0.00000000000E+00 -0.00000000000E+00 -0.46621149051E+00  0.46621846422E+00  0.25500000000E-02 0. -1.
         31    1    1    2    0    0  0.37021971851E+00  0.40135358811E+00  0.55677894264E+02  0.56176373887E+02  0.74470750000E+01 0. -1.
        -31    1    1    2    0    0 -0.37021971851E+00 -0.40135358811E+00  0.64026632697E+02  0.64460583056E+02  0.74470750000E+01 0.  1.
<mgrwt>
<rscale>  0 0.14970024E+02</rscale>
<asrwt>0</asrwt>
<pdfrwt beam="2">  1        2 0.99022015E+00 0.14970024E+02</pdfrwt>
<pdfrwt beam="1">  1       -2 0.99751077E+00 0.14970024E+02</pdfrwt>
<totfact>-0.12310567E-13</totfact>
</mgrwt>
</event>
<event>
 4    1  0.5010510E-019  0.1490197E+02  0.7818608E-02  0.1871075E+00
         -2   -1    0    0    0  501 -0.00000000000E+00  0.00000000000E+00  0.11815020637E+03  0.11815020640E+03  0.25500000000E-02 0. -1.
          2   -1    0    0  501    0  0.00000000000E+00 -0.00000000000E+00 -0.46988307448E+00  0.46988999371E+00  0.25500000000E-02 0.  1.
         31    1    1    2    0    0 -0.17703472900E-02  0.56298702433E-01  0.60708573347E+02  0.61163657318E+02  0.74470750000E+01 0. -1.
        -31    1    1    2    0    0  0.17703472900E-02 -0.56298702433E-01  0.56971749948E+02  0.57456439073E+02  0.74470750000E+01 0.  1.
<mgrwt>
<rscale>  0 0.14901972E+02</rscale>
<asrwt>0</asrwt>
<pdfrwt beam="2">  1        2 0.99792153E+00 0.14901972E+02</pdfrwt>
<pdfrwt beam="1">  1       -2 0.98083395E+00 0.14901972E+02</pdfrwt>
<totfact> 0.69228151E-13</totfact>
</mgrwt>
</event>
<event>
 4    1 -0.5010510E-019  0.1499833E+02  0.7818608E-02  0.1868119E+00
         -2   -1    0    0    0  501 -0.00000000000E+00  0.00000000000E+00  0.12027966119E+03  0.12027966121E+03  0.25500000000E-02 0. -1.
          2   -1    0    0  501    0  0.00000000000E+00 -0.00000000000E+00 -0.46755255009E+00  0.46755950380E+00  0.25500000000E-02 0.  1.
         31    1    1    2    0    0  0.10981775515E+00  0.87549841643E+00  0.59901704027E+02  0.60369293758E+02  0.74470750000E+01 0.  1.
        -31    1    1    2    0    0 -0.10981775515E+00 -0.87549841643E+00  0.59910404610E+02  0.60377926960E+02  0.74470750000E+01 0. -1.
<mgrwt>
<rscale>  0 0.14998331E+02</rscale>
<asrwt>0</asrwt>
<pdfrwt beam="2">  1        2 0.99306093E+00 0.14998331E+02</pdfrwt>
<pdfrwt beam="1">  1       -2 0.99842250E+00 0.14998331E+02</pdfrwt>
<totfact>-0.68440593E-14</totfact>
</mgrwt>
</event>
<event>
 4    1 -0.5010510E-019  0.1495798E+02  0.7818608E-02  0.1869353E+00
          2   -1    0    0  501    0  0.00000000000E+00  0.00000000000E+00  0.11930580788E+03  0.11930580790E+03  0.25500000000E-02 0. -1.
         -2   -1    0    0    0  501 -0.00000000000E+00 -0.00000000000E+00 -0.46883640460E+00  0.46884333927E+00  0.25500000000E-02 0.  1.
         31    1    1    2    0    0  0.11823765305E+00  0.45046914851E+00  0.63497504927E+02  0.63934411396E+02  0.74470750000E+01 0. -1.
        -31    1    1    2    0    0 -0.11823765305E+00 -0.45046914851E+00  0.55339466546E+02  0.55840239847E+02  0.74470750000E+01 0.  1.
<mgrwt>
<rscale>  0 0.14957984E+02</rscale>
<asrwt>0</asrwt>
<pdfrwt beam="1">  1        2 0.99038062E+00 0.14957984E+02</pdfrwt>
<pdfrwt beam="2">  1       -2 0.99574559E+00 0.14957984E+02</pdfrwt>
<totfact>-0.16576266E-13</totfact>
</mgrwt>
</event>
<event>
 4    1 -0.5010510E-019  0.1497594E+02  0.7818608E-02  0.1868804E+00
          2   -1    0    0  501    0  0.00000000000E+00  0.00000000000E+00  0.11952004956E+03  0.11952004958E+03  0.25500000000E-02 0. -1.
         -2   -1    0    0    0  501 -0.00000000000E+00 -0.00000000000E+00 -0.46912005939E+00  0.46912698986E+00  0.25500000000E-02 0.  1.
         31    1    1    2    0    0  0.29929769027E+00  0.10807171077E+00  0.53806545087E+02  0.54320387322E+02  0.74470750000E+01 0.  1.
        -31    1    1    2    0    0 -0.29929769027E+00 -0.10807171077E+00  0.65244384411E+02  0.65668789252E+02  0.74470750000E+01 0.  1.
<mgrwt>
<rscale>  0 0.14975937E+02</rscale>
<asrwt>0</asrwt>
<pdfrwt beam="1">  1        2 0.99215446E+00 0.14975937E+02</pdfrwt>
<pdfrwt beam="2">  1       -2 0.99635266E+00 0.14975937E+02</pdfrwt>
<totfact>-0.13445766E-13</totfact>
</mgrwt>
</event>
<event>
 4    1 -0.5010510E-019  0.1496463E+02  0.7818608E-02  0.1869150E+00
         -2   -1    0    0    0  501 -0.00000000000E+00  0.00000000000E+00  0.12015790092E+03  0.12015790095E+03  0.25500000000E-02 0.  1.
          2   -1    0    0  501    0  0.00000000000E+00 -0.00000000000E+00 -0.46592559626E+00  0.46593257426E+00  0.25500000000E-02 0. -1.
         31    1    1    2    0    0 -0.71956224432E+00  0.91445468973E-01  0.59826295477E+02  0.60292376704E+02  0.74470750000E+01 0. -1.
        -31    1    1    2    0    0  0.71956224432E+00 -0.91445468973E-01  0.59865679849E+02  0.60331456820E+02  0.74470750000E+01 0.  1.
<mgrwt>
<rscale>  0 0.14964634E+02</rscale>
<asrwt>0</asrwt>
<pdfrwt beam="2">  1        2 0.98961487E+00 0.14964634E+02</pdfrwt>
<pdfrwt beam="1">  1       -2 0.99740225E+00 0.14964634E+02</pdfrwt>
<totfact>-0.13463110E-13</totfact>
</mgrwt>
</event>
<event>
 4    1 -0.5010510E-019  0.1494386E+02  0.7818608E-02  0.1869786E+00
          2   -1    0    0  501    0  0.00000000000E+00  0.00000000000E+00  0.11897183712E+03  0.11897183715E+03  0.25500000000E-02 0. -1.
         -2   -1    0    0    0  501 -0.00000000000E+00 -0.00000000000E+00 -0.46926506218E+00  0.46927199052E+00  0.25500000000E-02 0.  1.
         31    1    1    2    0    0 -0.25207125314E+00 -0.76979800755E-02  0.54821186967E+02  0.55325266070E+02  0.74470750000E+01 0.  1.
        -31    1    1    2    0    0  0.25207125314E+00  0.76979800755E-02  0.63681385090E+02  0.64115843067E+02  0.74470750000E+01 0. -1.
<mgrwt>
<rscale>  0 0.14943861E+02</rscale>
<asrwt>0</asrwt>
<pdfrwt beam="1">  1        2 0.98762266E+00 0.14943861E+02</pdfrwt>
<pdfrwt beam="2">  1       -2 0.99664146E+00 0.14943861E+02</pdfrwt>
<totfact>-0.20132160E-13</totfact>
</mgrwt>
</event>
<event>
 4    1  0.5010510E-019  0.1493076E+02  0.7818608E-02  0.1870189E+00
         -2   -1    0    0    0  501 -0.00000000000E+00  0.00000000000E+00  0.11841949540E+03  0.11841949543E+03  0.25500000000E-02 0.  1.
          2   -1    0    0  501    0  0.00000000000E+00 -0.00000000000E+00 -0.47062759743E+00  0.47063450570E+00  0.25500000000E-02 0. -1.
         31    1    1    2    0    0  0.20931032128E+00  0.39489940833E+00  0.56819884269E+02  0.57307573066E+02  0.74470750000E+01 0. -1.
        -31    1    1    2    0    0 -0.20931032128E+00 -0.39489940833E+00  0.61128983532E+02  0.61582556866E+02  0.74470750000E+01 0.  1.
<mgrwt>
<rscale>  0 0.14930760E+02</rscale>
<asrwt>0</asrwt>
<pdfrwt beam="2">  1        2 0.99950545E+00 0.14930760E+02</pdfrwt>
<pdfrwt beam="1">  1       -2 0.98306678E+00 0.14930760E+02</pdfrwt>
<totfact> 0.12591413E-13</totfact>
</mgrwt>
</event>
<event>
 4    1 -0.5010510E-019  0.1497904E+02  0.7818608E-02  0.1868709E+00
          2   -1    0    0  501    0  0.00000000000E+00  0.00000000000E+00  0.12023742142E+03  0.12023742145E+03  0.25500000000E-02 0.  1.
         -2   -1    0    0    0  501 -0.00000000000E+00 -0.00000000000E+00 -0.46651429807E+00  0.46652126726E+00  0.25500000000E-02 0. -1.
         31    1    1    2    0    0  0.44841727355E+00  0.49285141687E+00  0.56373045027E+02  0.56866713570E+02  0.74470750000E+01 0. -1.
        -31    1    1    2    0    0 -0.44841727355E+00 -0.49285141687E+00  0.63397862096E+02  0.63837229145E+02  0.74470750000E+01 0.  1.
<mgrwt>
<rscale>  0 0.14979038E+02</rscale>
<asrwt>0</asrwt>
<pdfrwt beam="1">  1        2 0.99806465E+00 0.14979038E+02</pdfrwt>
<pdfrwt beam="2">  1       -2 0.99086293E+00 0.14979038E+02</pdfrwt>
<totfact>-0.19086830E-14</totfact>
</mgrwt>
</event>
<event>
 4    1  0.5010510E-019  0.1490593E+02  0.7818608E-02  0.1870953E+00
         -2   -1    0    0    0  501 -0.00000000000E+00  0.00000000000E+00  0.11844922724E+03  0.11844922727E+03  0.25500000000E-02 0.  1.
          2   -1    0    0  501    0  0.00000000000E+00 -0.00000000000E+00 -0.46894566604E+00  0.46895259910E+00  0.25500000000E-02 0. -1.
         31    1    1    2    0    0 -0.85645822346E-01  0.15097728903E+00  0.60905009641E+02  0.61358856368E+02  0.74470750000E+01 0.  1.
        -31    1    1    2    0    0  0.85645822346E-01 -0.15097728903E+00  0.57075271935E+02  0.57559323501E+02  0.74470750000E+01 0. -1.
<mgrwt>
<rscale>  0 0.14905927E+02</rscale>
<asrwt>0</asrwt>
<pdfrwt beam="2">  1        2 0.99594854E+00 0.14905927E+02</pdfrwt>
<pdfrwt beam="1">  1       -2 0.98329871E+00 0.14905927E+02</pdfrwt>
<totfact> 0.66404603E-13</totfact>
</mgrwt>
</event>
<event>
 4    1  0.5010510E-019  0.1491187E+02  0.7818608E-02  0.1870770E+00
          2   -1    0    0  501    0  0.00000000000E+00  0.00000000000E+00  0.12035591208E+03  0.12035591211E+03  0.25500000000E-02 0. -1.
         -2   -1    0    0    0  501 -0.00000000000E+00 -0.00000000000E+00 -0.46188433457E+00  0.46189137361E+00  0.25500000000E-02 0.  1.
         31    1    1    2    0    0 -0.85658514627E-01 -0.31913008112E+00  0.61171206372E+02  0.61623734036E+02  0.74470750000E+01 0. -1.
        -31    1    1    2    0    0  0.85658514627E-01  0.31913008112E+00  0.58722821375E+02  0.59194069446E+02  0.74470750000E+01 0.  1.
<mgrwt>
<rscale>  0 0.14911866E+02</rscale>
<asrwt>0</asrwt>
<pdfrwt beam="1">  1        2 0.99900613E+00 0.14911866E+02</pdfrwt>
<pdfrwt beam="2">  1       -2 0.98107050E+00 0.14911866E+02</pdfrwt>
<totfact> 0.35761253E-13</totfact>
</mgrwt>
</event>
<event>
 4    1  0.5010510E-019  0.1494564E+02  0.7818608E-02  0.1869732E+00
          2   -1    0    0  501    0  0.00000000000E+00  0.00000000000E+00  0.12005370779E+03  0.12005370782E+03  0.25500000000E-02 0.  1.
         -2   -1    0    0    0  501 -0.00000000000E+00 -0.00000000000E+00 -0.46514704205E+00  0.46515403172E+00  0.25500000000E-02 0. -1.
         31    1    1    2    0    0  0.52742084919E+00 -0.31146774345E+00  0.60556680890E+02  0.61015946369E+02  0.74470750000E+01 0. -1.
        -31    1    1    2    0    0 -0.52742084919E+00  0.31146774345E+00  0.59031879858E+02  0.59502915479E+02  0.74470750000E+01 0. -1.
<mgrwt>
<rscale>  0 0.14945641E+02</rscale>
<asrwt>0</asrwt>
<pdfrwt beam="1">  1        2 0.99653427E+00 0.14945641E+02</pdfrwt>
<pdfrwt beam="2">  1       -2 0.98796433E+00 0.14945641E+02</pdfrwt>
<totfact> 0.12524394E-13</totfact>
</mgrwt>
</event>
<event>
 4    1  0.5010510E-019  0.1493214E+02  0.7818608E-02  0.1870146E+00
          2   -1    0    0  501    0  0.00000000000E+00  0.00000000000E+00  0.12028726711E+03  0.12028726714E+03  0.25500000000E-02 0. -1.
         -2   -1    0    0    0  501 -0.00000000000E+00 -0.00000000000E+00 -0.46340538862E+00  0.46341240456E+00  0.25500000000E-02 0.  1.
         31    1    1    2    0    0 -0.26822353314E+00  0.37760644832E+00  0.62032053871E+02  0.62479189847E+02  0.74470750000E+01 0. -1.
        -31    1    1    2    0    0  0.26822353314E+00 -0.37760644832E+00  0.57791807851E+02  0.58271489694E+02  0.74470750000E+01 0.  1.
<mgrwt>
<rscale>  0 0.14932139E+02</rscale>
<asrwt>0</asrwt>
<pdfrwt beam="1">  1        2 0.99845110E+00 0.14932139E+02</pdfrwt>
<pdfrwt beam="2">  1       -2 0.98428672E+00 0.14932139E+02</pdfrwt>
<totfact> 0.26259096E-13</totfact>
</mgrwt>
</event>
<event>
 4    1  0.5010510E-019  0.1494009E+02  0.7818608E-02  0.1869902E+00
         -2   -1    0    0    0  501 -0.00000000000E+00  0.00000000000E+00  0.11897025751E+03  0.11897025754E+03  0.25500000000E-02 0.  1.
          2   -1    0    0  501    0  0.00000000000E+00 -0.00000000000E+00 -0.46903452804E+00  0.46904145979E+00  0.25500000000E-02 0. -1.
         31    1    1    2    0    0 -0.30576427375E+00 -0.49256106341E+00  0.58604093557E+02  0.59078209315E+02  0.74470750000E+01 0. -1.
        -31    1    1    2    0    0  0.30576427375E+00  0.49256106341E+00  0.59897129430E+02  0.60361089687E+02  0.74470750000E+01 0. -1.
<mgrwt>
<rscale>  0 0.14940090E+02</rscale>
<asrwt>0</asrwt>
<pdfrwt beam="2">  1        2 0.99615372E+00 0.14940090E+02</pdfrwt>
<pdfrwt beam="1">  1       -2 0.98760769E+00 0.14940090E+02</pdfrwt>
<totfact> 0.16121219E-13</totfact>
</mgrwt>
</event>
<event>
 4    1 -0.5010510E-019  0.1497104E+02  0.7818608E-02  0.1868953E+00
          2   -1    0    0  501    0  0.00000000000E+00  0.00000000000E+00  0.11943957263E+03  0.11943957266E+03  0.25500000000E-02 0. -1.
         -2   -1    0    0    0  501 -0.00000000000E+00 -0.00000000000E+00 -0.46912933532E+00  0.46913626566E+00  0.25500000000E-02 0.  1.
         31    1    1    2    0    0  0.31617941562E+00  0.24063269238E+00  0.64652510257E+02  0.65081209900E+02  0.74470750000E+01 0. -1.
        -31    1    1    2    0    0 -0.31617941562E+00 -0.24063269238E+00  0.54317933038E+02  0.54827499023E+02  0.74470750000E+01 0.  1.
<mgrwt>
<rscale>  0 0.14971042E+02</rscale>
<asrwt>0</asrwt>
<pdfrwt beam="1">  1        2 0.99148910E+00 0.14971042E+02</pdfrwt>
<pdfrwt beam="2">  1       -2 0.99636966E+00 0.14971042E+02</pdfrwt>
<totfact>-0.14093968E-13</totfact>
</mgrwt>
</event>
<event>
 4    1  0.5010510E-019  0.1493394E+02  0.7818608E-02  0.1870091E+00
         -2   -1    0    0    0  501 -0.00000000000E+00  0.00000000000E+00  0.11851919089E+03  0.11851919092E+03  0.25500000000E-02 0.  1.
          2   -1    0    0  501    0  0.00000000000E+00 -0.00000000000E+00 -0.47043201358E+00  0.47043892473E+00  0.25500000000E-02 0. -1.
         31    1    1    2    0    0  0.53099411350E+00 -0.11960943371E+00  0.58855883667E+02  0.59327651475E+02  0.74470750000E+01 0.  1.
        -31    1    1    2    0    0 -0.53099411350E+00  0.11960943371E+00  0.59192875209E+02  0.59661978367E+02  0.74470750000E+01 0. -1.
<mgrwt>
<rscale>  0 0.14933939E+02</rscale>
<asrwt>0</asrwt>
<pdfrwt beam="2">  1        2 0.99909505E+00 0.14933939E+02</pdfrwt>
<pdfrwt beam="1">  1       -2 0.98388951E+00 0.14933939E+02</pdfrwt>
<totfact> 0.18193297E-13</totfact>
</mgrwt>
</event>
<event>
 4    1 -0.5010510E-019  0.1497810E+02  0.7818608E-02  0.1868737E+00
          2   -1    0    0  501    0  0.00000000000E+00  0.00000000000E+00  0.11993040003E+03  0.11993040006E+03  0.25500000000E-02 0. -1.
         -2   -1    0    0    0  501 -0.00000000000E+00 -0.00000000000E+00 -0.46765005683E+00  0.46765700909E+00  0.25500000000E-02 0.  1.
         31    1    1    2    0    0  0.38597059810E+00  0.62332603048E-01  0.54196664972E+02  0.54707314673E+02  0.74470750000E+01 0.  1.
        -31    1    1    2    0    0 -0.38597059810E+00 -0.62332603048E-01  0.65266085006E+02  0.65690742398E+02  0.74470750000E+01 0. -1.
<mgrwt>
<rscale>  0 0.14978101E+02</rscale>
<asrwt>0</asrwt>
<pdfrwt beam="1">  1        2 0.99553537E+00 0.14978101E+02</pdfrwt>
<pdfrwt beam="2">  1       -2 0.99325602E+00 0.14978101E+02</pdfrwt>
<totfact>-0.10162608E-13</totfact>
</mgrwt>
</event>
<event>
 4    1 -0.5010510E-019  0.1495212E+02  0.7818608E-02  0.1869533E+00
         -2   -1    0    0    0  501 -0.00000000000E+00  0.00000000000E+00  0.11932067890E+03  0.11932067892E+03  0.25500000000E-02 0.  1.
          2   -1    0    0  501    0  0.00000000000E+00 -0.00000000000E+00 -0.46841039641E+00  0.46841733738E+00  0.25500000000E-02 0. -1.
         31    1    1    2    0    0  0.31266238020E+00  0.40998208396E+00  0.56155172336E+02  0.56649167242E+02  0.74470750000E+01 0. -1.
        -31    1    1    2    0    0 -0.31266238020E+00 -0.40998208396E+00  0.62697096164E+02  0.63139929019E+02  0.74470750000E+01 0.  1.
<mgrwt>
<rscale>  0 0.14952119E+02</rscale>
<asrwt>0</asrwt>
<pdfrwt beam="2">  1        2 0.99484484E+00 0.14952119E+02</pdfrwt>
<pdfrwt beam="1">  1       -2 0.99050006E+00 0.14952119E+02</pdfrwt>
<totfact>-0.18676244E-14</totfact>
</mgrwt>
</event>
<event>
 4    1  0.5010510E-019  0.1490153E+02  0.7818608E-02  0.1871088E+00
          2   -1    0    0  501    0  0.00000000000E+00  0.00000000000E+00  0.11964759884E+03  0.11964759887E+03  0.25500000000E-02 0.  1.
         -2   -1    0    0    0  501 -0.00000000000E+00 -0.00000000000E+00 -0.46397466359E+00  0.46398167093E+00  0.25500000000E-02 0. -1.
         31    1    1    2    0    0 -0.17273657991E+00 -0.14533315097E+00  0.59082592883E+02  0.59550505182E+02  0.74470750000E+01 0. -1.
        -31    1    1    2    0    0  0.17273657991E+00  0.14533315097E+00  0.60101031298E+02  0.60561075361E+02  0.74470750000E+01 0.  1.
<mgrwt>
<rscale>  0 0.14901527E+02</rscale>
<asrwt>0</asrwt>
<pdfrwt beam="1">  1        2 0.99316659E+00 0.14901527E+02</pdfrwt>
<pdfrwt beam="2">  1       -2 0.98547097E+00 0.14901527E+02</pdfrwt>
<totfact> 0.49262623E-13</totfact>
</mgrwt>
</event>
<event>
 4    1  0.5010510E-019  0.1490486E+02  0.7818608E-02  0.1870986E+00
         -2   -1    0    0    0  501 -0.00000000000E+00  0.00000000000E+00  0.11847714807E+03  0.11847714810E+03  0.25500000000E-02 0. -1.
          2   -1    0    0  501    0  0.00000000000E+00 -0.00000000000E+00 -0.46876790755E+00  0.46877484324E+00  0.25500000000E-02 0.  1.
         31    1    1    2    0    0  0.12356228497E+00  0.18192246144E-01  0.56982557854E+02  0.57467263935E+02  0.74470750000E+01 0.  1.
        -31    1    1    2    0    0 -0.12356228497E+00 -0.18192246144E-01  0.61025822312E+02  0.61478659009E+02  0.74470750000E+01 0. -1.
<mgrwt>
<rscale>  0 0.14904858E+02</rscale>
<asrwt>0</asrwt>
<pdfrwt beam="2">  1        2 0.99557343E+00 0.14904858E+02</pdfrwt>
<pdfrwt beam="1">  1       -2 0.98352811E+00 0.14904858E+02</pdfrwt>
<totfact> 0.66223098E-13</totfact>
</mgrwt>
</event>
<event>
 4    1 -0.5010510E-019  0.1494248E+02  0.7818608E-02  0.1869829E+00
          2   -1    0    0  501    0  0.00000000000E+00  0.00000000000E+00  0.11922336894E+03  0.11922336897E+03  0.25500000000E-02 0. -1.
         -2   -1    0    0    0  501 -0.00000000000E+00 -0.00000000000E+00 -0.46818853265E+00  0.46819547692E+00  0.25500000000E-02 0.  1.
         31    1    1    2    0    0  0.53338311743E+00  0.82382122598E-01  0.57270128674E+02  0.57754808014E+02  0.74470750000E+01 0.  1.
        -31    1    1    2    0    0 -0.53338311743E+00 -0.82382122598E-01  0.61485051738E+02  0.61936756434E+02  0.74470750000E+01 0. -1.
<mgrwt>
<rscale>  0 0.14942481E+02</rscale>
<asrwt>0</asrwt>
<pdfrwt beam="1">  1        2 0.98969360E+00 0.14942481E+02</pdfrwt>
<pdfrwt beam="2">  1       -2 0.99437231E+00 0.14942481E+02</pdfrwt>
<totfact>-0.18338385E-13</totfact>
</mgrwt>
</event>
<event>
 4    1 -0.5010510E-019  0.1502662E+02  0.7818608E-02  0.1867257E+00
          2   -1    0    0  501    0  0.00000000000E+00  0.00000000000E+00  0.12037724680E+03  0.12037724683E+03  0.25500000000E-02 0.  1.
         -2   -1    0    0    0  501 -0.00000000000E+00 -0.00000000000E+00 -0.46893747356E+00  0.46894440673E+00  0.25500000000E-02 0. -1.
         31    1    1    2    0    0 -0.29861281000E+00  0.24183746410E+00  0.52569202748E+02  0.53095457984E+02  0.74470750000E+01 0. -1.
        -31    1    1    2    0    0  0.29861281000E+00 -0.24183746410E+00  0.67339106578E+02  0.67750733249E+02  0.74470750000E+01 0.  1.
<mgrwt>
<rscale>  0 0.15026619E+02</rscale>
<asrwt>0</asrwt>
<pdfrwt beam="1">  1        2 0.99924086E+00 0.15026619E+02</pdfrwt>
<pdfrwt beam="2">  1       -2 0.99599411E+00 0.15026619E+02</pdfrwt>
<totfact>-0.26785616E-14</totfact>
</mgrwt>
</event>
<event>
 4    1 -0.5010510E-019  0.1497747E+02  0.7818608E-02  0.1868757E+00
          2   -1    0    0  501    0  0.00000000000E+00  0.00000000000E+00  0.11920492816E+03  0.11920492819E+03  0.25500000000E-02 0.  1.
         -2   -1    0    0    0  501 -0.00000000000E+00 -0.00000000000E+00 -0.47045676787E+00  0.47046367865E+00  0.25500000000E-02 0. -1.
         31    1    1    2    0    0 -0.60135965234E+00  0.50465503418E+00  0.59983280669E+02  0.60448897393E+02  0.74470750000E+01 0.  1.
        -31    1    1    2    0    0  0.60135965234E+00 -0.50465503418E+00  0.58751190726E+02  0.59226494476E+02  0.74470750000E+01 0. -1.
<mgrwt>
<rscale>  0 0.14977474E+02</rscale>
<asrwt>0</asrwt>
<pdfrwt beam="1">  1        2 0.98955987E+00 0.14977474E+02</pdfrwt>
<pdfrwt beam="2">  1       -2 0.99917014E+00 0.14977474E+02</pdfrwt>
<totfact>-0.51033636E-14</totfact>
</mgrwt>
</event>
<event>
 4    1 -0.5010510E-019  0.1495886E+02  0.7818608E-02  0.1869327E+00
          2   -1    0    0  501    0  0.00000000000E+00  0.00000000000E+00  0.11947035606E+03  0.11947035609E+03  0.25500000000E-02 0.  1.
         -2   -1    0    0    0  501 -0.00000000000E+00 -0.00000000000E+00 -0.46824522169E+00  0.46825216511E+00  0.25500000000E-02 0. -1.
         31    1    1    2    0    0 -0.48641365669E+00  0.13107953408E+00  0.55663041254E+02  0.56161257712E+02  0.74470750000E+01 0. -1.
        -31    1    1    2    0    0  0.48641365669E+00 -0.13107953408E+00  0.63339069589E+02  0.63777350545E+02  0.74470750000E+01 0.  1.
<mgrwt>
<rscale>  0 0.14958856E+02</rscale>
<asrwt>0</asrwt>
<pdfrwt beam="1">  1        2 0.99173633E+00 0.14958856E+02</pdfrwt>
<pdfrwt beam="2">  1       -2 0.99450028E+00 0.14958856E+02</pdfrwt>
<totfact>-0.15433538E-13</totfact>
</mgrwt>
</event>
<event>
 4    1  0.5010510E-019  0.1491169E+02  0.7818608E-02  0.1870775E+00
         -2   -1    0    0    0  501 -0.00000000000E+00  0.00000000000E+00  0.11848739694E+03  0.11848739697E+03  0.25500000000E-02 0. -1.
          2   -1    0    0  501    0  0.00000000000E+00 -0.00000000000E+00 -0.46915721934E+00  0.46916414927E+00  0.25500000000E-02 0.  1.
         31    1    1    2    0    0 -0.28091169197E-01 -0.12549347047E+00  0.61704581437E+02  0.62152480514E+02  0.74470750000E+01 0. -1.
        -31    1    1    2    0    0  0.28091169197E-01  0.12549347047E+00  0.56313658281E+02  0.56804080600E+02  0.74470750000E+01 0.  1.
<mgrwt>
<rscale>  0 0.14911691E+02</rscale>
<asrwt>0</asrwt>
<pdfrwt beam="2">  1        2 0.99639732E+00 0.14911691E+02</pdfrwt>
<pdfrwt beam="1">  1       -2 0.98361608E+00 0.14911691E+02</pdfrwt>
<totfact> 0.57522218E-13</totfact>
</mgrwt>
</event>
<event>
 4    1 -0.5010510E-019  0.1491629E+02  0.7818608E-02  0.1870634E+00
         -2   -1    0    0    0  501 -0.00000000000E+00  0.00000000000E+00  0.12015719095E+03  0.12015719098E+03  0.25500000000E-02 0. -1.
          2   -1    0    0  501    0  0.00000000000E+00 -0.00000000000E+00 -0.46292275440E+00  0.46292977766E+00  0.25500000000E-02 0.  1.
         31    1    1    2    0    0  0.11223931852E+00  0.16685271653E+00  0.56993177922E+02  0.57478010519E+02  0.74470750000E+01 0.  1.
        -31    1    1    2    0    0 -0.11223931852E+00 -0.16685271653E+00  0.62701090275E+02  0.63142110237E+02  0.74470750000E+01 0. -1.
<mgrwt>
<rscale>  0 0.14916289E+02</rscale>
<asrwt>0</asrwt>
<pdfrwt beam="2">  1        2 0.98326145E+00 0.14916289E+02</pdfrwt>
<pdfrwt beam="1">  1       -2 0.99737155E+00 0.14916289E+02</pdfrwt>
<totfact>-0.33909144E-13</totfact>
</mgrwt>
</event>
<event>
 4    1 -0.5010510E-019  0.1500150E+02  0.7818608E-02  0.1868023E+00
         -2   -1    0    0    0  501 -0.00000000000E+00  0.00000000000E+00  0.11978058385E+03  0.11978058388E+03  0.25500000000E-02 0.  1.
          2   -1    0    0  501    0  0.00000000000E+00 -0.00000000000E+00 -0.46969889519E+00  0.46970581713E+00  0.25500000000E-02 0. -1.
         31    1    1    2    0    0 -0.13964363976E+00  0.71130303327E+00  0.55437781258E+02  0.55940432329E+02  0.74470750000E+01 0. -1.
        -31    1    1    2    0    0  0.13964363976E+00 -0.71130303327E+00  0.63873103697E+02  0.64309857365E+02  0.74470750000E+01 0.  1.
<mgrwt>
<rscale>  0 0.15001497E+02</rscale>
<asrwt>0</asrwt>
<pdfrwt beam="2">  1        2 0.99758570E+00 0.15001497E+02</pdfrwt>
<pdfrwt beam="1">  1       -2 0.99431353E+00 0.15001497E+02</pdfrwt>
<totfact>-0.75125458E-14</totfact>
</mgrwt>
</event>
<event>
 4    1  0.5010510E-019  0.1493143E+02  0.7818608E-02  0.1870168E+00
          2   -1    0    0  501    0  0.00000000000E+00  0.00000000000E+00  0.11985810514E+03  0.11985810517E+03  0.25500000000E-02 0.  1.
         -2   -1    0    0    0  501 -0.00000000000E+00 -0.00000000000E+00 -0.46502027378E+00  0.46502726535E+00  0.25500000000E-02 0. -1.
         31    1    1    2    0    0  0.44970365474E+00 -0.24896112632E+00  0.60640785660E+02  0.61098510837E+02  0.74470750000E+01 0.  1.
        -31    1    1    2    0    0 -0.44970365474E+00  0.24896112632E+00  0.58752299208E+02  0.59224621597E+02  0.74470750000E+01 0.  1.
<mgrwt>
<rscale>  0 0.14931426E+02</rscale>
<asrwt>0</asrwt>
<pdfrwt beam="1">  1        2 0.99491584E+00 0.14931426E+02</pdfrwt>
<pdfrwt beam="2">  1       -2 0.98768990E+00 0.14931426E+02</pdfrwt>
<totfact> 0.18042446E-13</totfact>
</mgrwt>
</event>
<event>
 4    1  0.5010510E-019  0.1492059E+02  0.7818608E-02  0.1870502E+00
         -2   -1    0    0    0  501 -0.00000000000E+00  0.00000000000E+00  0.11825227214E+03  0.11825227216E+03  0.25500000000E-02 0.  1.
          2   -1    0    0  501    0  0.00000000000E+00 -0.00000000000E+00 -0.47065106233E+00  0.47065797027E+00  0.25500000000E-02 0. -1.
         31    1    1    2    0    0  0.38324391222E+00  0.53252766328E-01  0.57159705682E+02  0.57644085485E+02  0.74470750000E+01 0. -1.
        -31    1    1    2    0    0 -0.38324391222E+00 -0.53252766328E-01  0.60621915391E+02  0.61078844648E+02  0.74470750000E+01 0.  1.
<mgrwt>
<rscale>  0 0.14920586E+02</rscale>
<asrwt>0</asrwt>
<pdfrwt beam="2">  1        2 0.99954949E+00 0.14920586E+02</pdfrwt>
<pdfrwt beam="1">  1       -2 0.98168425E+00 0.14920586E+02</pdfrwt>
<totfact> 0.15336517E-13</totfact>
</mgrwt>
</event>
<event>
 4    1 -0.5010510E-019  0.1493622E+02  0.7818608E-02  0.1870021E+00
         -2   -1    0    0    0  501 -0.00000000000E+00  0.00000000000E+00  0.11971419331E+03  0.11971419334E+03  0.25500000000E-02 0. -1.
          2   -1    0    0  501    0  0.00000000000E+00 -0.00000000000E+00 -0.46587810435E+00  0.46588508305E+00  0.25500000000E-02 0.  1.
         31    1    1    2    0    0  0.21415118672E+00  0.31634378146E+00  0.56328326975E+02  0.56819761350E+02  0.74470750000E+01 0.  1.
        -31    1    1    2    0    0 -0.21415118672E+00 -0.31634378146E+00  0.62919988231E+02  0.63360317070E+02  0.74470750000E+01 0. -1.
<mgrwt>
<rscale>  0 0.14936217E+02</rscale>
<asrwt>0</asrwt>
<pdfrwt beam="2">  1        2 0.98950022E+00 0.14936217E+02</pdfrwt>
<pdfrwt beam="1">  1       -2 0.99373297E+00 0.14936217E+02</pdfrwt>
<totfact>-0.17979436E-13</totfact>
</mgrwt>
</event>
<event>
 4    1 -0.5010510E-019  0.1491470E+02  0.7818608E-02  0.1870683E+00
         -2   -1    0    0    0  501 -0.00000000000E+00  0.00000000000E+00  0.11972815445E+03  0.11972815448E+03  0.25500000000E-02 0.  1.
          2   -1    0    0  501    0  0.00000000000E+00 -0.00000000000E+00 -0.46448233271E+00  0.46448933238E+00  0.25500000000E-02 0. -1.
         31    1    1    2    0    0  0.29857349208E+00 -0.22197125435E+00  0.58655062080E+02  0.59127097434E+02  0.74470750000E+01 0.  1.
        -31    1    1    2    0    0 -0.29857349208E+00  0.22197125435E+00  0.60608610036E+02  0.61065546374E+02  0.74470750000E+01 0.  1.
<mgrwt>
<rscale>  0 0.14914695E+02</rscale>
<asrwt>0</asrwt>
<pdfrwt beam="2">  1        2 0.98654762E+00 0.14914695E+02</pdfrwt>
<pdfrwt beam="1">  1       -2 0.99383687E+00 0.14914695E+02</pdfrwt>
<totfact>-0.26384236E-13</totfact>
</mgrwt>
</event>
<event>
 4    1 -0.5010510E-019  0.1493971E+02  0.7818608E-02  0.1869914E+00
          2   -1    0    0  501    0  0.00000000000E+00  0.00000000000E+00  0.11914468965E+03  0.11914468968E+03  0.25500000000E-02 0. -1.
         -2   -1    0    0    0  501 -0.00000000000E+00 -0.00000000000E+00 -0.46832417600E+00  0.46833111826E+00  0.25500000000E-02 0.  1.
         31    1    1    2    0    0  0.53613529614E+00 -0.22473948959E+00  0.59685375551E+02  0.60150984444E+02  0.74470750000E+01 0.  1.
        -31    1    1    2    0    0 -0.53613529614E+00  0.22473948959E+00  0.58990989927E+02  0.59462036355E+02  0.74470750000E+01 0.  1.
<mgrwt>
<rscale>  0 0.14939713E+02</rscale>
<asrwt>0</asrwt>
<pdfrwt beam="1">  1        2 0.98904414E+00 0.14939713E+02</pdfrwt>
<pdfrwt beam="2">  1       -2 0.99465670E+00 0.14939713E+02</pdfrwt>
<totfact>-0.19749737E-13</totfact>
</mgrwt>
</event>
<event>
 4    1  0.5010510E-019  0.1492136E+02  0.7818608E-02  0.1870478E+00
          2   -1    0    0  501    0  0.00000000000E+00  0.00000000000E+00  0.12023558751E+03  0.12023558753E+03  0.25500000000E-02 0.  1.
         -2   -1    0    0    0  501 -0.00000000000E+00 -0.00000000000E+00 -0.46293532391E+00  0.46294234697E+00  0.25500000000E-02 0. -1.
         31    1    1    2    0    0 -0.44679591622E+00  0.39433143094E-01  0.60211750149E+02  0.60672192672E+02  0.74470750000E+01 0. -1.
        -31    1    1    2    0    0  0.44679591622E+00 -0.39433143094E-01  0.59560902034E+02  0.60026337209E+02  0.74470750000E+01 0.  1.
<mgrwt>
<rscale>  0 0.14921357E+02</rscale>
<asrwt>0</asrwt>
<pdfrwt beam="1">  1        2 0.99801989E+00 0.14921357E+02</pdfrwt>
<pdfrwt beam="2">  1       -2 0.98329051E+00 0.14921357E+02</pdfrwt>
<totfact> 0.40673819E-13</totfact>
</mgrwt>
</event>
<event>
 4    1 -0.5010510E-019  0.1490757E+02  0.7818608E-02  0.1870902E+00
          2   -1    0    0  501    0  0.00000000000E+00  0.00000000000E+00  0.11832717793E+03  0.11832717796E+03  0.25500000000E-02 0. -1.
         -2   -1    0    0    0  501 -0.00000000000E+00 -0.00000000000E+00 -0.46953307853E+00  0.46954000291E+00  0.25500000000E-02 0.  1.
         31    1    1    2    0    0  0.10568373781E+00  0.34209356296E-01  0.61288361202E+02  0.61739245899E+02  0.74470750000E+01 0. -1.
        -31    1    1    2    0    0 -0.10568373781E+00 -0.34209356296E-01  0.56569283651E+02  0.57057472062E+02  0.74470750000E+01 0.  1.
<mgrwt>
<rscale>  0 0.14907574E+02</rscale>
<asrwt>0</asrwt>
<pdfrwt beam="1">  1        2 0.98229438E+00 0.14907574E+02</pdfrwt>
<pdfrwt beam="2">  1       -2 0.99718708E+00 0.14907574E+02</pdfrwt>
<totfact>-0.41866414E-13</totfact>
</mgrwt>
</event>
<event>
 4    1  0.5010510E-019  0.1492799E+02  0.7818608E-02  0.1870274E+00
         -2   -1    0    0    0  501 -0.00000000000E+00  0.00000000000E+00  0.11837247223E+03  0.11837247226E+03  0.25500000000E-02 0. -1.
          2   -1    0    0  501    0  0.00000000000E+00 -0.00000000000E+00 -0.47064006745E+00  0.47064697554E+00  0.25500000000E-02 0.  1.
         31    1    1    2    0    0  0.38438950638E+00  0.28166869061E+00  0.60215247711E+02  0.60675877213E+02  0.74470750000E+01 0.  1.
        -31    1    1    2    0    0 -0.38438950638E+00 -0.28166869061E+00  0.57686584455E+02  0.58167242024E+02  0.74470750000E+01 0. -1.
<mgrwt>
<rscale>  0 0.14927993E+02</rscale>
<asrwt>0</asrwt>
<pdfrwt beam="2">  1        2 0.99953025E+00 0.14927993E+02</pdfrwt>
<pdfrwt beam="1">  1       -2 0.98267806E+00 0.14927993E+02</pdfrwt>
<totfact> 0.13047534E-13</totfact>
</mgrwt>
</event>
<event>
 4    1  0.5010510E-019  0.1495613E+02  0.7818608E-02  0.1869410E+00
          2   -1    0    0  501    0  0.00000000000E+00  0.00000000000E+00  0.12032706017E+03  0.12032706020E+03  0.25500000000E-02 0.  1.
         -2   -1    0    0    0  501 -0.00000000000E+00 -0.00000000000E+00 -0.46474192681E+00  0.46474892258E+00  0.25500000000E-02 0. -1.
         31    1    1    2    0    0  0.32907421832E+00 -0.28836349434E+00  0.64136204011E+02  0.64568591701E+02  0.74470750000E+01 0.  1.
        -31    1    1    2    0    0 -0.32907421832E+00  0.28836349434E+00  0.55726114234E+02  0.56223217420E+02  0.74470750000E+01 0. -1.
<mgrwt>
<rscale>  0 0.14956130E+02</rscale>
<asrwt>0</asrwt>
<pdfrwt beam="1">  1        2 0.99879119E+00 0.14956130E+02</pdfrwt>
<pdfrwt beam="2">  1       -2 0.98711585E+00 0.14956130E+02</pdfrwt>
<totfact> 0.84797699E-14</totfact>
</mgrwt>
</event>
<event>
 4    1 -0.5010510E-019  0.1490768E+02  0.7818608E-02  0.1870899E+00
          2   -1    0    0  501    0  0.00000000000E+00  0.00000000000E+00  0.11904735953E+03  0.11904735956E+03  0.25500000000E-02 0.  1.
         -2   -1    0    0    0  501 -0.00000000000E+00 -0.00000000000E+00 -0.46669900215E+00  0.46670596858E+00  0.25500000000E-02 0. -1.
         31    1    1    2    0    0 -0.26790029245E+00 -0.15482255807E+00  0.58721455667E+02  0.59192601077E+02  0.74470750000E+01 0. -1.
        -31    1    1    2    0    0  0.26790029245E+00  0.15482255807E+00  0.59859204859E+02  0.60321464447E+02  0.74470750000E+01 0.  1.
<mgrwt>
<rscale>  0 0.14907676E+02</rscale>
<asrwt>0</asrwt>
<pdfrwt beam="1">  1        2 0.98822591E+00 0.14907676E+02</pdfrwt>
<pdfrwt beam="2">  1       -2 0.99121541E+00 0.14907676E+02</pdfrwt>
<totfact>-0.92522904E-14</totfact>
</mgrwt>
</event>
<event>
 4    1  0.5010510E-019  0.1489674E+02  0.7818608E-02  0.1871236E+00
         -2   -1    0    0    0  501 -0.00000000000E+00  0.00000000000E+00  0.11882643227E+03  0.11882643230E+03  0.25500000000E-02 0.  1.
          2   -1    0    0  501    0  0.00000000000E+00 -0.00000000000E+00 -0.46688097038E+00  0.46688793410E+00  0.25500000000E-02 0. -1.
         31    1    1    2    0    0  0.92303989433E-01  0.51143699418E-01  0.59902950425E+02  0.60364174238E+02  0.74470750000E+01 0.  1.
        -31    1    1    2    0    0 -0.92303989433E-01 -0.51143699418E-01  0.58456600876E+02  0.58929145996E+02  0.74470750000E+01 0. -1.
<mgrwt>
<rscale>  0 0.14896740E+02</rscale>
<asrwt>0</asrwt>
<pdfrwt beam="2">  1        2 0.99159317E+00 0.14896740E+02</pdfrwt>
<pdfrwt beam="1">  1       -2 0.98640064E+00 0.14896740E+02</pdfrwt>
<totfact> 0.40576213E-13</totfact>
</mgrwt>
</event>
<event>
 4    1  0.5010510E-019  0.1490983E+02  0.7818608E-02  0.1870833E+00
         -2   -1    0    0    0  501 -0.00000000000E+00  0.00000000000E+00  0.11833629972E+03  0.11833629975E+03  0.25500000000E-02 0. -1.
          2   -1    0    0  501    0  0.00000000000E+00 -0.00000000000E+00 -0.46963907147E+00  0.46964599429E+00  0.25500000000E-02 0.  1.
         31    1    1    2    0    0 -0.11301373090E+00  0.26674364058E+00  0.57487738643E+02  0.57968810102E+02  0.74470750000E+01 0.  1.
        -31    1    1    2    0    0  0.11301373090E+00 -0.26674364058E+00  0.60378922005E+02  0.60837135639E+02  0.74470750000E+01 0. -1.
<mgrwt>
<rscale>  0 0.14909831E+02</rscale>
<asrwt>0</asrwt>
<pdfrwt beam="2">  1        2 0.99741160E+00 0.14909831E+02</pdfrwt>
<pdfrwt beam="1">  1       -2 0.98237068E+00 0.14909831E+02</pdfrwt>
<totfact> 0.60656078E-13</totfact>
</mgrwt>
</event>
<event>
 4    1 -0.5010510E-019  0.1491382E+02  0.7818608E-02  0.1870710E+00
          2   -1    0    0  501    0  0.00000000000E+00  0.00000000000E+00  0.11835370491E+03  0.11835370494E+03  0.25500000000E-02 0. -1.
         -2   -1    0    0    0  501 -0.00000000000E+00 -0.00000000000E+00 -0.46982140558E+00  0.46982832571E+00  0.25500000000E-02 0.  1.
         31    1    1    2    0    0  0.20050267578E+00 -0.25842213585E+00  0.60527570914E+02  0.60984856728E+02  0.74470750000E+01 0. -1.
        -31    1    1    2    0    0 -0.20050267578E+00  0.25842213585E+00  0.57356312592E+02  0.57838676537E+02  0.74470750000E+01 0. -1.
<mgrwt>
<rscale>  0 0.14913821E+02</rscale>
<asrwt>0</asrwt>
<pdfrwt beam="1">  1        2 0.98251611E+00 0.14913821E+02</pdfrwt>
<pdfrwt beam="2">  1       -2 0.99779788E+00 0.14913821E+02</pdfrwt>
<totfact>-0.33701264E-13</totfact>
</mgrwt>
</event>
<event>
 4    1 -0.5010510E-019  0.1492482E+02  0.7818608E-02  0.1870371E+00
         -2   -1    0    0    0  501 -0.00000000000E+00  0.00000000000E+00  0.11998204768E+03  0.11998204771E+03  0.25500000000E-02 0.  1.
          2   -1    0    0  501    0  0.00000000000E+00 -0.00000000000E+00 -0.46412913990E+00  0.46413614490E+00  0.25500000000E-02 0. -1.
         31    1    1    2    0    0 -0.18741075585E+00 -0.43958613490E+00  0.59618419625E+02  0.60083635404E+02  0.74470750000E+01 0.  1.
        -31    1    1    2    0    0  0.18741075585E+00  0.43958613490E+00  0.59899498915E+02  0.60362548448E+02  0.74470750000E+01 0. -1.
<mgrwt>
<rscale>  0 0.14924823E+02</rscale>
<asrwt>0</asrwt>
<pdfrwt beam="2">  1        2 0.98580841E+00 0.14924823E+02</pdfrwt>
<pdfrwt beam="1">  1       -2 0.99593332E+00 0.14924823E+02</pdfrwt>
<totfact>-0.28846949E-13</totfact>
</mgrwt>
</event>
<event>
 4    1 -0.5010510E-019  0.1490385E+02  0.7818608E-02  0.1871017E+00
         -2   -1    0    0    0  501 -0.00000000000E+00  0.00000000000E+00  0.11963826064E+03  0.11963826067E+03  0.25500000000E-02 0. -1.
          2   -1    0    0  501    0  0.00000000000E+00 -0.00000000000E+00 -0.46415543935E+00  0.46416244395E+00  0.25500000000E-02 0.  1.
         31    1    1    2    0    0 -0.22685769459E+00  0.11797704714E+00  0.60254626080E+02  0.60713625102E+02  0.74470750000E+01 0.  1.
        -31    1    1    2    0    0  0.22685769459E+00 -0.11797704714E+00  0.58919479120E+02  0.59388798007E+02  0.74470750000E+01 0.  1.
<mgrwt>
<rscale>  0 0.14903848E+02</rscale>
<asrwt>0</asrwt>
<pdfrwt beam="2">  1        2 0.98585314E+00 0.14903848E+02</pdfrwt>
<pdfrwt beam="1">  1       -2 0.99309087E+00 0.14903848E+02</pdfrwt>
<totfact>-0.26739712E-13</totfact>
</mgrwt>
</event>
<event>
 4    1  0.5010510E-019  0.1490998E+02  0.7818608E-02  0.1870828E+00
          2   -1    0    0  501    0  0.00000000000E+00  0.00000000000E+00  0.12012026605E+03  0.12012026608E+03  0.25500000000E-02 0.  1.
         -2   -1    0    0    0  501 -0.00000000000E+00 -0.00000000000E+00 -0.46267348594E+00  0.46268051298E+00  0.25500000000E-02 0. -1.
         31    1    1    2    0    0  0.24917547093E+00  0.22961083758E+00  0.59374753933E+02  0.59840915269E+02  0.74470750000E+01 0. -1.
        -31    1    1    2    0    0 -0.24917547093E+00 -0.22961083758E+00  0.60282838631E+02  0.60742031321E+02  0.74470750000E+01 0.  1.
<mgrwt>
<rscale>  0 0.14909982E+02</rscale>
<asrwt>0</asrwt>
<pdfrwt beam="1">  1        2 0.99706417E+00 0.14909982E+02</pdfrwt>
<pdfrwt beam="2">  1       -2 0.98273288E+00 0.14909982E+02</pdfrwt>
<totfact> 0.61387711E-13</totfact>
</mgrwt>
</event>
<event>
 4    1 -0.5010510E-019  0.1490481E+02  0.7818608E-02  0.1870987E+00
         -2   -1    0    0    0  501 -0.00000000000E+00  0.00000000000E+00  0.11994390001E+03  0.11994390004E+03  0.25500000000E-02 0. -1.
          2   -1    0    0  501    0  0.00000000000E+00 -0.00000000000E+00 -0.46303253822E+00  0.46303955981E+00  0.25500000000E-02 0.  1.
         31    1    1    2    0    0  0.26546199011E+00  0.93530938772E-01  0.59857126721E+02  0.60319265276E+02  0.74470750000E+01 0. -1.
        -31    1    1    2    0    0 -0.26546199011E+00 -0.93530938772E-01  0.59623740749E+02  0.60087674319E+02  0.74470750000E+01 0. -1.
<mgrwt>
<rscale>  0 0.14904812E+02</rscale>
<asrwt>0</asrwt>
<pdfrwt beam="2">  1        2 0.98348702E+00 0.14904812E+02</pdfrwt>
<pdfrwt beam="1">  1       -2 0.99560882E+00 0.14904812E+02</pdfrwt>
<totfact>-0.43352578E-13</totfact>
</mgrwt>
</event>
<event>
 4    1  0.5010510E-019  0.1491938E+02  0.7818608E-02  0.1870539E+00
          2   -1    0    0  501    0  0.00000000000E+00  0.00000000000E+00  0.12013537794E+03  0.12013537796E+03  0.25500000000E-02 0. -1.
         -2   -1    0    0    0  501 -0.00000000000E+00 -0.00000000000E+00 -0.46319855355E+00  0.46320557262E+00  0.25500000000E-02 0.  1.
         31    1    1    2    0    0 -0.96805457039E-01  0.23906467367E+00  0.57018384604E+02  0.57503231493E+02  0.74470750000E+01 0.  1.
        -31    1    1    2    0    0  0.96805457039E-01 -0.23906467367E+00  0.62653794780E+02  0.63095352044E+02  0.74470750000E+01 0. -1.
<mgrwt>
<rscale>  0 0.14919378E+02</rscale>
<asrwt>0</asrwt>
<pdfrwt beam="1">  1        2 0.99719347E+00 0.14919378E+02</pdfrwt>
<pdfrwt beam="2">  1       -2 0.98384431E+00 0.14919378E+02</pdfrwt>
<totfact> 0.46238438E-13</totfact>
</mgrwt>
</event>
<event>
 4    1  0.5010510E-019  0.1491447E+02  0.7818608E-02  0.1870690E+00
         -2   -1    0    0    0  501 -0.00000000000E+00  0.00000000000E+00  0.11866554634E+03  0.11866554637E+03  0.25500000000E-02 0.  1.
          2   -1    0    0  501    0  0.00000000000E+00 -0.00000000000E+00 -0.46862753639E+00  0.46863447415E+00  0.25500000000E-02 0. -1.
         31    1    1    2    0    0  0.14789848048E+00  0.20197189706E+00  0.56718612063E+02  0.57205966009E+02  0.74470750000E+01 0.  1.
        -31    1    1    2    0    0 -0.14789848048E+00 -0.20197189706E+00  0.61478306743E+02  0.61928214835E+02  0.74470750000E+01 0.  1.
<mgrwt>
<rscale>  0 0.14914470E+02</rscale>
<asrwt>0</asrwt>
<pdfrwt beam="2">  1        2 0.99528271E+00 0.14914470E+02</pdfrwt>
<pdfrwt beam="1">  1       -2 0.98508476E+00 0.14914470E+02</pdfrwt>
<totfact> 0.45903852E-13</totfact>
</mgrwt>
</event>
<event>
 4    1  0.5010510E-019  0.1492817E+02  0.7818608E-02  0.1870268E+00
          2   -1    0    0  501    0  0.00000000000E+00  0.00000000000E+00  0.12018568793E+03  0.12018568796E+03  0.25500000000E-02 0. -1.
         -2   -1    0    0    0  501 -0.00000000000E+00 -0.00000000000E+00 -0.46355034307E+00  0.46355735682E+00  0.25500000000E-02 0.  1.
         31    1    1    2    0    0 -0.32552006185E+00 -0.34643642812E+00  0.58517560539E+02  0.58991438353E+02  0.74470750000E+01 0. -1.
        -31    1    1    2    0    0  0.32552006185E+00  0.34643642812E+00  0.61204577053E+02  0.61657806966E+02  0.74470750000E+01 0. -1.
<mgrwt>
<rscale>  0 0.14928167E+02</rscale>
<asrwt>0</asrwt>
<pdfrwt beam="1">  1        2 0.99761237E+00 0.14928167E+02</pdfrwt>
<pdfrwt beam="2">  1       -2 0.98459022E+00 0.14928167E+02</pdfrwt>
<totfact> 0.34083452E-13</totfact>
</mgrwt>
</event>
<event>
 4    1 -0.5010510E-019  0.1501849E+02  0.7818608E-02  0.1867505E+00
         -2   -1    0    0    0  501 -0.00000000000E+00  0.00000000000E+00  0.12005590922E+03  0.12005590925E+03  0.25500000000E-02 0. -1.
          2   -1    0    0  501    0  0.00000000000E+00 -0.00000000000E+00 -0.46968394049E+00  0.46969086265E+00  0.25500000000E-02 0.  1.
         31    1    1    2    0    0  0.40153993476E+00 -0.52988152970E+00  0.65398186083E+02  0.65824187634E+02  0.74470750000E+01 0. -1.
        -31    1    1    2    0    0 -0.40153993476E+00  0.52988152970E+00  0.54188039197E+02  0.54701412475E+02  0.74470750000E+01 0.  1.
<mgrwt>
<rscale>  0 0.15018489E+02</rscale>
<asrwt>0</asrwt>
<pdfrwt beam="2">  1        2 0.99756300E+00 0.15018489E+02</pdfrwt>
<pdfrwt beam="1">  1       -2 0.99658999E+00 0.15018489E+02</pdfrwt>
<totfact>-0.65891999E-14</totfact>
</mgrwt>
</event>
<event>
 4    1 -0.5010510E-019  0.1494402E+02  0.7818608E-02  0.1869782E+00
         -2   -1    0    0    0  501 -0.00000000000E+00  0.00000000000E+00  0.12028475912E+03  0.12028475915E+03  0.25500000000E-02 0.  1.
          2   -1    0    0  501    0  0.00000000000E+00 -0.00000000000E+00 -0.46415282650E+00  0.46415983114E+00  0.25500000000E-02 0. -1.
         31    1    1    2    0    0  0.19651754378E+00 -0.34425807508E-01  0.64567439666E+02  0.64995792136E+02  0.74470750000E+01 0.  1.
        -31    1    1    2    0    0 -0.19651754378E+00  0.34425807508E-01  0.55253166629E+02  0.55753126844E+02  0.74470750000E+01 0. -1.
<mgrwt>
<rscale>  0 0.14944020E+02</rscale>
<asrwt>0</asrwt>
<pdfrwt beam="2">  1        2 0.98586809E+00 0.14944020E+02</pdfrwt>
<pdfrwt beam="1">  1       -2 0.99843655E+00 0.14944020E+02</pdfrwt>
<totfact>-0.14640356E-13</totfact>
</mgrwt>
</event>
<event>
 4    1 -0.5010510E-019  0.1494013E+02  0.7818608E-02  0.1869901E+00
          2   -1    0    0  501    0  0.00000000000E+00  0.00000000000E+00  0.11877470363E+03  0.11877470366E+03  0.25500000000E-02 0. -1.
         -2   -1    0    0    0  501 -0.00000000000E+00 -0.00000000000E+00 -0.46980927439E+00  0.46981619470E+00  0.25500000000E-02 0.  1.
         31    1    1    2    0    0 -0.38337131157E+00  0.36005620695E+00  0.57096822242E+02  0.57582832947E+02  0.74470750000E+01 0.  1.
        -31    1    1    2    0    0  0.38337131157E+00 -0.36005620695E+00  0.61208072113E+02  0.61661686904E+02  0.74470750000E+01 0. -1.
<mgrwt>
<rscale>  0 0.14940130E+02</rscale>
<asrwt>0</asrwt>
<pdfrwt beam="1">  1        2 0.98599712E+00 0.14940130E+02</pdfrwt>
<pdfrwt beam="2">  1       -2 0.99778620E+00 0.14940130E+02</pdfrwt>
<totfact>-0.19092089E-13</totfact>
</mgrwt>
</event>
<event>
 4    1 -0.5010510E-019  0.1494329E+02  0.7818608E-02  0.1869804E+00
          2   -1    0    0  501    0  0.00000000000E+00  0.00000000000E+00  0.11901066543E+03  0.11901066545E+03  0.25500000000E-02 0. -1.
         -2   -1    0    0    0  501 -0.00000000000E+00 -0.00000000000E+00 -0.46907607067E+00  0.46908300180E+00  0.25500000000E-02 0.  1.
         31    1    1    2    0    0 -0.30250687246E+00  0.29255685789E+00  0.55790710832E+02  0.56287116120E+02  0.74470750000E+01 0.  1.
        -31    1    1    2    0    0  0.30250687246E+00 -0.29255685789E+00  0.62750878524E+02  0.63192632336E+02  0.74470750000E+01 0. -1.
<mgrwt>
<rscale>  0 0.14943289E+02</rscale>
<asrwt>0</asrwt>
<pdfrwt beam="1">  1        2 0.98794216E+00 0.14943289E+02</pdfrwt>
<pdfrwt beam="2">  1       -2 0.99624293E+00 0.14943289E+02</pdfrwt>
<totfact>-0.20502572E-13</totfact>
</mgrwt>
</event>
<event>
 4    1 -0.5010510E-019  0.1496280E+02  0.7818608E-02  0.1869206E+00
          2   -1    0    0  501    0  0.00000000000E+00  0.00000000000E+00  0.11949775682E+03  0.11949775685E+03  0.25500000000E-02 0. -1.
         -2   -1    0    0    0  501 -0.00000000000E+00 -0.00000000000E+00 -0.46838447223E+00  0.46839141359E+00  0.25500000000E-02 0.  1.
         31    1    1    2    0    0 -0.21275864051E+00  0.57831677721E+00  0.62435009776E+02  0.62880593892E+02  0.74470750000E+01 0. -1.
        -31    1    1    2    0    0  0.21275864051E+00 -0.57831677721E+00  0.56594362572E+02  0.57085554368E+02  0.74470750000E+01 0. -1.
<mgrwt>
<rscale>  0 0.14962795E+02</rscale>
<asrwt>0</asrwt>
<pdfrwt beam="1">  1        2 0.99196405E+00 0.14962795E+02</pdfrwt>
<pdfrwt beam="2">  1       -2 0.99479576E+00 0.14962795E+02</pdfrwt>
<totfact>-0.15212937E-13</totfact>
</mgrwt>
</event>
<event>
 4    1  0.5010510E-019  0.1493719E+02  0.7818608E-02  0.1869991E+00
          2   -1    0    0  501    0  0.00000000000E+00  0.00000000000E+00  0.12020046344E+03  0.12020046347E+03  0.25500000000E-02 0. -1.
         -2   -1    0    0    0  501 -0.00000000000E+00 -0.00000000000E+00 -0.46405383540E+00  0.46406084154E+00  0.25500000000E-02 0.  1.
         31    1    1    2    0    0  0.16388246091E-01 -0.55354457463E+00  0.58902060084E+02  0.59373548726E+02  0.74470750000E+01 0. -1.
        -31    1    1    2    0    0 -0.16388246091E-01  0.55354457463E+00  0.60834349526E+02  0.61290975587E+02  0.74470750000E+01 0. -1.
<mgrwt>
<rscale>  0 0.14937190E+02</rscale>
<asrwt>0</asrwt>
<pdfrwt beam="1">  1        2 0.99773871E+00 0.14937190E+02</pdfrwt>
<pdfrwt beam="2">  1       -2 0.98565599E+00 0.14937190E+02</pdfrwt>
<totfact> 0.24058157E-13</totfact>
</mgrwt>
</event>
<event>
 4    1 -0.5010510E-019  0.1494542E+02  0.7818608E-02  0.1869739E+00
         -2   -1    0    0    0  501 -0.00000000000E+00  0.00000000000E+00  0.12010663119E+03  0.12010663122E+03  0.25500000000E-02 0.  1.
          2   -1    0    0  501    0  0.00000000000E+00 -0.00000000000E+00 -0.46492847072E+00  0.46493546368E+00  0.25500000000E-02 0. -1.
         31    1    1    2    0    0  0.25790455725E+00  0.38533603064E+00  0.63122511021E+02  0.63561980163E+02  0.74470750000E+01 0.  1.
        -31    1    1    2    0    0 -0.25790455725E+00 -0.38533603064E+00  0.56519191699E+02  0.57009586518E+02  0.74470750000E+01 0. -1.
<mgrwt>
<rscale>  0 0.14945423E+02</rscale>
<asrwt>0</asrwt>
<pdfrwt beam="2">  1        2 0.98750357E+00 0.14945423E+02</pdfrwt>
<pdfrwt beam="1">  1       -2 0.99697007E+00 0.14945423E+02</pdfrwt>
<totfact>-0.19207483E-13</totfact>
</mgrwt>
</event>
<event>
 4    1 -0.5010510E-019  0.1492821E+02  0.7818608E-02  0.1870267E+00
         -2   -1    0    0    0  501 -0.00000000000E+00  0.00000000000E+00  0.11993625875E+03  0.11993625878E+03  0.25500000000E-02 0. -1.
          2   -1    0    0  501    0  0.00000000000E+00 -0.00000000000E+00 -0.46451687715E+00  0.46452387630E+00  0.25500000000E-02 0.  1.
         31    1    1    2    0    0 -0.48882411744E+00 -0.68412827488E-01  0.60553774326E+02  0.61011983581E+02  0.74470750000E+01 0.  1.
        -31    1    1    2    0    0  0.48882411744E+00  0.68412827488E-01  0.58917967549E+02  0.59388799074E+02  0.74470750000E+01 0.  1.
<mgrwt>
<rscale>  0 0.14928207E+02</rscale>
<asrwt>0</asrwt>
<pdfrwt beam="2">  1        2 0.98662733E+00 0.14928207E+02</pdfrwt>
<pdfrwt beam="1">  1       -2 0.99555791E+00 0.14928207E+02</pdfrwt>
<totfact>-0.26302419E-13</totfact>
</mgrwt>
</event>
<event>
 4    1 -0.5010510E-019  0.1494734E+02  0.7818608E-02  0.1869680E+00
         -2   -1    0    0    0  501 -0.00000000000E+00  0.00000000000E+00  0.12014874587E+03  0.12014874589E+03  0.25500000000E-02 0. -1.
          2   -1    0    0  501    0  0.00000000000E+00 -0.00000000000E+00 -0.46488450828E+00  0.46489150190E+00  0.25500000000E-02 0.  1.
         31    1    1    2    0    0  0.62767121406E-01 -0.56776136119E+00  0.57699470692E+02  0.58180874322E+02  0.74470750000E+01 0. -1.
        -31    1    1    2    0    0 -0.62767121406E-01  0.56776136119E+00  0.61984390667E+02  0.62432763075E+02  0.74470750000E+01 0. -1.
<mgrwt>
<rscale>  0 0.14947336E+02</rscale>
<asrwt>0</asrwt>
<pdfrwt beam="2">  1        2 0.98741189E+00 0.14947336E+02</pdfrwt>
<pdfrwt beam="1">  1       -2 0.99731794E+00 0.14947336E+02</pdfrwt>
<totfact>-0.17912107E-13</totfact>
</mgrwt>
</event>
<event>
 4    1  0.5010510E-019  0.1490009E+02  0.7818608E-02  0.1871133E+00
          2   -1    0    0  501    0  0.00000000000E+00  0.00000000000E+00  0.11993243041E+03  0.11993243043E+03  0.25500000000E-02 0.  1.
         -2   -1    0    0    0  501 -0.00000000000E+00 -0.00000000000E+00 -0.46278369231E+00  0.46279071768E+00  0.25500000000E-02 0. -1.
         31    1    1    2    0    0  0.13789491267E-01 -0.20415133629E+00  0.59338685842E+02  0.59804518487E+02  0.74470750000E+01 0.  1.
        -31    1    1    2    0    0 -0.13789491267E-01  0.20415133629E+00  0.60130960874E+02  0.60590702666E+02  0.74470750000E+01 0.  1.
<mgrwt>
<rscale>  0 0.14900094E+02</rscale>
<asrwt>0</asrwt>
<pdfrwt beam="1">  1        2 0.99551192E+00 0.14900094E+02</pdfrwt>
<pdfrwt beam="2">  1       -2 0.98296015E+00 0.14900094E+02</pdfrwt>
<totfact> 0.75855480E-13</totfact>
</mgrwt>
</event>
<event>
 4    1 -0.5010510E-019  0.1492768E+02  0.7818608E-02  0.1870283E+00
          2   -1    0    0  501    0  0.00000000000E+00  0.00000000000E+00  0.11867738570E+03  0.11867738573E+03  0.25500000000E-02 0.  1.
         -2   -1    0    0    0  501 -0.00000000000E+00 -0.00000000000E+00 -0.46941111348E+00  0.46941803966E+00  0.25500000000E-02 0. -1.
         31    1    1    2    0    0  0.14979662498E+00 -0.47568581415E+00  0.58821125883E+02  0.59292769308E+02  0.74470750000E+01 0. -1.
        -31    1    1    2    0    0 -0.14979662498E+00  0.47568581415E+00  0.59386848701E+02  0.59854034457E+02  0.74470750000E+01 0. -1.
<mgrwt>
<rscale>  0 0.14927679E+02</rscale>
<asrwt>0</asrwt>
<pdfrwt beam="1">  1        2 0.98518914E+00 0.14927679E+02</pdfrwt>
<pdfrwt beam="2">  1       -2 0.99694070E+00 0.14927679E+02</pdfrwt>
<totfact>-0.27309927E-13</totfact>
</mgrwt>
</event>
<event>
 4    1 -0.5010510E-019  0.1497014E+02  0.7818608E-02  0.1868981E+00
         -2   -1    0    0    0  501 -0.00000000000E+00  0.00000000000E+00  0.11993836086E+03  0.11993836088E+03  0.25500000000E-02 0. -1.
          2   -1    0    0  501    0  0.00000000000E+00 -0.00000000000E+00 -0.46712223288E+00  0.46712919300E+00  0.25500000000E-02 0.  1.
         31    1    1    2    0    0  0.60111532081E+00 -0.53402540630E-01  0.63361042847E+02  0.63800038152E+02  0.74470750000E+01 0.  1.
        -31    1    1    2    0    0 -0.60111532081E+00  0.53402540630E-01  0.56110195776E+02  0.56605451924E+02  0.74470750000E+01 0.  1.
<mgrwt>
<rscale>  0 0.14970143E+02</rscale>
<asrwt>0</asrwt>
<pdfrwt beam="2">  1        2 0.99213958E+00 0.14970143E+02</pdfrwt>
<pdfrwt beam="1">  1       -2 0.99559684E+00 0.14970143E+02</pdfrwt>
<totfact>-0.14574540E-13</totfact>
</mgrwt>
</event>
<event>
 4    1 -0.5010510E-019  0.1494394E+02  0.7818608E-02  0.1869784E+00
          2   -1    0    0  501    0  0.00000000000E+00  0.00000000000E+00  0.11874564440E+03  0.11874564443E+03  0.25500000000E-02 0. -1.
         -2   -1    0    0    0  501 -0.00000000000E+00 -0.00000000000E+00 -0.47016370851E+00  0.47017062361E+00  0.25500000000E-02 0.  1.
         31    1    1    2    0    0  0.88070266635E-01  0.46752104407E+00  0.56099481558E+02  0.56593613504E+02  0.74470750000E+01 0.  1.
        -31    1    1    2    0    0 -0.88070266635E-01 -0.46752104407E+00  0.62175999132E+02  0.62622201546E+02  0.74470750000E+01 0. -1.
<mgrwt>
<rscale>  0 0.14943936E+02</rscale>
<asrwt>0</asrwt>
<pdfrwt beam="1">  1        2 0.98575977E+00 0.14943936E+02</pdfrwt>
<pdfrwt beam="2">  1       -2 0.99853501E+00 0.14943936E+02</pdfrwt>
<totfact>-0.14075501E-13</totfact>
</mgrwt>
</event>
<event>
 4    1  0.5010510E-019  0.1491789E+02  0.7818608E-02  0.1870584E+00
          2   -1    0    0  501    0  0.00000000000E+00  0.00000000000E+00  0.11962358636E+03  0.11962358639E+03  0.25500000000E-02 0.  1.
         -2   -1    0    0    0  501 -0.00000000000E+00 -0.00000000000E+00 -0.46508780644E+00  0.46509479700E+00  0.25500000000E-02 0. -1.
         31    1    1    2    0    0 -0.10483443175E+00  0.36060186591E-01  0.62845953717E+02  0.63285741800E+02  0.74470750000E+01 0.  1.
        -31    1    1    2    0    0  0.10483443175E+00 -0.36060186591E-01  0.56312544841E+02  0.56802939388E+02  0.74470750000E+01 0. -1.
<mgrwt>
<rscale>  0 0.14917894E+02</rscale>
<asrwt>0</asrwt>
<pdfrwt beam="1">  1        2 0.99297724E+00 0.14917894E+02</pdfrwt>
<pdfrwt beam="2">  1       -2 0.98782530E+00 0.14917894E+02</pdfrwt>
<totfact> 0.19710109E-13</totfact>
</mgrwt>
</event>
<event>
 4    1 -0.5010510E-019  0.1499836E+02  0.7818608E-02  0.1868119E+00
          2   -1    0    0  501    0  0.00000000000E+00  0.00000000000E+00  0.11988596952E+03  0.11988596955E+03  0.25500000000E-02 0.  1.
         -2   -1    0    0    0  501 -0.00000000000E+00 -0.00000000000E+00 -0.46908973862E+00  0.46909666954E+00  0.25500000000E-02 0. -1.
         31    1    1    2    0    0  0.36345168427E+00  0.42653997351E+00  0.54237973187E+02  0.54749709543E+02  0.74470750000E+01 0. -1.
        -31    1    1    2    0    0 -0.36345168427E+00 -0.42653997351E+00  0.65178906593E+02  0.65605356673E+02  0.74470750000E+01 0.  1.
<mgrwt>
<rscale>  0 0.14998359E+02</rscale>
<asrwt>0</asrwt>
<pdfrwt beam="1">  1        2 0.99517990E+00 0.14998359E+02</pdfrwt>
<pdfrwt beam="2">  1       -2 0.99630041E+00 0.14998359E+02</pdfrwt>
<totfact>-0.10590916E-13</totfact>
</mgrwt>
</event>
<event>
 4    1 -0.5010510E-019  0.1490655E+02  0.7818608E-02  0.1870934E+00
         -2   -1    0    0    0  501 -0.00000000000E+00  0.00000000000E+00  0.11971646839E+03  0.11971646841E+03  0.25500000000E-02 0.  1.
          2   -1    0    0  501    0  0.00000000000E+00 -0.00000000000E+00 -0.46402045286E+00  0.46402745950E+00  0.25500000000E-02 0. -1.
         31    1    1    2    0    0  0.24114605507E+00  0.15168906612E+00  0.58772024138E+02  0.59242644340E+02  0.74470750000E+01 0. -1.
        -31    1    1    2    0    0 -0.24114605507E+00 -0.15168906612E+00  0.60480423794E+02  0.60937851532E+02  0.74470750000E+01 0.  1.
<mgrwt>
<rscale>  0 0.14906551E+02</rscale>
<asrwt>0</asrwt>
<pdfrwt beam="2">  1        2 0.98557003E+00 0.14906551E+02</pdfrwt>
<pdfrwt beam="1">  1       -2 0.99373643E+00 0.14906551E+02</pdfrwt>
<totfact>-0.30376864E-13</totfact>
</mgrwt>
</event>
<event>
 4    1 -0.5010510E-019  0.1496133E+02  0.7818608E-02  0.1869251E+00
         -2   -1    0    0    0  501 -0.00000000000E+00  0.00000000000E+00  0.12026804054E+03  0.12026804056E+03  0.25500000000E-02 0.  1.
          2   -1    0    0  501    0  0.00000000000E+00 -0.00000000000E+00 -0.46529320335E+00  0.46530019083E+00  0.25500000000E-02 0. -1.
         31    1    1    2    0    0  0.60085630514E+00  0.25328160716E+00  0.57673504173E+02  0.58155972948E+02  0.74470750000E+01 0. -1.
        -31    1    1    2    0    0 -0.60085630514E+00 -0.25328160716E+00  0.62129243160E+02  0.62577367806E+02  0.74470750000E+01 0.  1.
<mgrwt>
<rscale>  0 0.14961327E+02</rscale>
<asrwt>0</asrwt>
<pdfrwt beam="2">  1        2 0.98828037E+00 0.14961327E+02</pdfrwt>
<pdfrwt beam="1">  1       -2 0.99830773E+00 0.14961327E+02</pdfrwt>
<totfact>-0.11158975E-13</totfact>
</mgrwt>
</event>
<event>
 4    1 -0.5010510E-019  0.1495196E+02  0.7818608E-02  0.1869538E+00
          2   -1    0    0  501    0  0.00000000000E+00  0.00000000000E+00  0.11910648301E+03  0.11910648304E+03  0.25500000000E-02 0. -1.
         -2   -1    0    0    0  501 -0.00000000000E+00 -0.00000000000E+00 -0.46924271617E+00  0.46924964484E+00  0.25500000000E-02 0.  1.
         31    1    1    2    0    0 -0.53220738633E+00 -0.37513908805E+00  0.58632274484E+02  0.59106907475E+02  0.74470750000E+01 0.  1.
        -31    1    1    2    0    0  0.53220738633E+00  0.37513908805E+00  0.60004965812E+02  0.60468825210E+02  0.74470750000E+01 0. -1.
<mgrwt>
<rscale>  0 0.14951958E+02</rscale>
<asrwt>0</asrwt>
<pdfrwt beam="1">  1        2 0.98873582E+00 0.14951958E+02</pdfrwt>
<pdfrwt beam="2">  1       -2 0.99659861E+00 0.14951958E+02</pdfrwt>
<totfact>-0.17648620E-13</totfact>
</mgrwt>
</event>
<event>
 4    1 -0.5010510E-019  0.1492792E+02  0.7818608E-02  0.1870276E+00
         -2   -1    0    0    0  501 -0.00000000000E+00  0.00000000000E+00  0.11967890595E+03  0.11967890597E+03  0.25500000000E-02 0. -1.
          2   -1    0    0  501    0  0.00000000000E+00 -0.00000000000E+00 -0.46549783800E+00  0.46550482241E+00  0.25500000000E-02 0.  1.
         31    1    1    2    0    0  0.46554155809E+00  0.60360078112E-01  0.61032749637E+02  0.61487200510E+02  0.74470750000E+01 0. -1.
        -31    1    1    2    0    0 -0.46554155809E+00 -0.60360078112E-01  0.58180658471E+02  0.58657210286E+02  0.74470750000E+01 0.  1.
<mgrwt>
<rscale>  0 0.14927919E+02</rscale>
<asrwt>0</asrwt>
<pdfrwt beam="2">  1        2 0.98869457E+00 0.14927919E+02</pdfrwt>
<pdfrwt beam="1">  1       -2 0.99343805E+00 0.14927919E+02</pdfrwt>
<totfact>-0.19025061E-13</totfact>
</mgrwt>
</event>
<event>
 4    1  0.5010510E-019  0.1490455E+02  0.7818608E-02  0.1870995E+00
         -2   -1    0    0    0  501 -0.00000000000E+00  0.00000000000E+00  0.11819875870E+03  0.11819875872E+03  0.25500000000E-02 0.  1.
          2   -1    0    0  501    0  0.00000000000E+00 -0.00000000000E+00 -0.46985250606E+00  0.46985942573E+00  0.25500000000E-02 0. -1.
         31    1    1    2    0    0 -0.16640816644E+00  0.81823683067E-01  0.60517049139E+02  0.60973818556E+02  0.74470750000E+01 0.  1.
        -31    1    1    2    0    0  0.16640816644E+00 -0.81823683067E-01  0.57211857052E+02  0.57694799594E+02  0.74470750000E+01 0. -1.
<mgrwt>
<rscale>  0 0.14904549E+02</rscale>
<asrwt>0</asrwt>
<pdfrwt beam="2">  1        2 0.99785849E+00 0.14904549E+02</pdfrwt>
<pdfrwt beam="1">  1       -2 0.98123516E+00 0.14904549E+02</pdfrwt>
<totfact> 0.65823627E-13</totfact>
</mgrwt>
</event>
<event>
 4    1  0.5010510E-019  0.1491796E+02  0.7818608E-02  0.1870582E+00
         -2   -1    0    0    0  501 -0.00000000000E+00  0.00000000000E+00  0.11849764077E+03  0.11849764080E+03  0.25500000000E-02 0.  1.
          2   -1    0    0  501    0  0.00000000000E+00 -0.00000000000E+00 -0.46951122734E+00  0.46951815204E+00  0.25500000000E-02 0. -1.
         31    1    1    2    0    0 -0.34514051559E+00  0.20767423906E+00  0.59997571997E+02  0.60459323699E+02  0.74470750000E+01 0.  1.
        -31    1    1    2    0    0  0.34514051559E+00 -0.20767423906E+00  0.58030557545E+02  0.58507835250E+02  0.74470750000E+01 0.  1.
<mgrwt>
<rscale>  0 0.14917960E+02</rscale>
<asrwt>0</asrwt>
<pdfrwt beam="2">  1        2 0.99714653E+00 0.14917960E+02</pdfrwt>
<pdfrwt beam="1">  1       -2 0.98370371E+00 0.14917960E+02</pdfrwt>
<totfact> 0.48376195E-13</totfact>
</mgrwt>
</event>
<event>
 4    1 -0.5010510E-019  0.1498282E+02  0.7818608E-02  0.1868593E+00
         -2   -1    0    0    0  501 -0.00000000000E+00  0.00000000000E+00  0.12040197332E+03  0.12040197335E+03  0.25500000000E-02 0.  1.
          2   -1    0    0  501    0  0.00000000000E+00 -0.00000000000E+00 -0.46611178446E+00  0.46611875966E+00  0.25500000000E-02 0. -1.
         31    1    1    2    0    0  0.31669750910E+00  0.62752988736E+00  0.56659581063E+02  0.57151212965E+02  0.74470750000E+01 0. -1.
        -31    1    1    2    0    0 -0.31669750910E+00 -0.62752988736E+00  0.63276280476E+02  0.63716879146E+02  0.74470750000E+01 0.  1.
<mgrwt>
<rscale>  0 0.14982817E+02</rscale>
<asrwt>0</asrwt>
<pdfrwt beam="2">  1        2 0.99001655E+00 0.14982817E+02</pdfrwt>
<pdfrwt beam="1">  1       -2 0.99942195E+00 0.14982817E+02</pdfrwt>
<totfact>-0.34662767E-14</totfact>
</mgrwt>
</event>
<event>
 4    1 -0.5010510E-019  0.1493297E+02  0.7818608E-02  0.1870121E+00
          2   -1    0    0  501    0  0.00000000000E+00  0.00000000000E+00  0.11851051236E+03  0.11851051239E+03  0.25500000000E-02 0. -1.
         -2   -1    0    0    0  501 -0.00000000000E+00 -0.00000000000E+00 -0.47040529216E+00  0.47041220370E+00  0.25500000000E-02 0.  1.
         31    1    1    2    0    0  0.43846882246E+00 -0.24545979396E+00  0.57488405087E+02  0.57970925048E+02  0.74470750000E+01 0.  1.
        -31    1    1    2    0    0 -0.43846882246E+00  0.24545979396E+00  0.60551701979E+02  0.61009999541E+02  0.74470750000E+01 0. -1.
<mgrwt>
<rscale>  0 0.14932968E+02</rscale>
<asrwt>0</asrwt>
<pdfrwt beam="1">  1        2 0.98381753E+00 0.14932968E+02</pdfrwt>
<pdfrwt beam="2">  1       -2 0.99903823E+00 0.14932968E+02</pdfrwt>
<totfact>-0.13233419E-13</totfact>
</mgrwt>
</event>
<event>
 4    1 -0.5010510E-019  0.1501141E+02  0.7818608E-02  0.1867720E+00
          2   -1    0    0  501    0  0.00000000000E+00  0.00000000000E+00  0.12004410188E+03  0.12004410191E+03  0.25500000000E-02 0. -1.
         -2   -1    0    0    0  501 -0.00000000000E+00 -0.00000000000E+00 -0.46928765669E+00  0.46929458469E+00  0.25500000000E-02 0.  1.
         31    1    1    2    0    0  0.56693245106E+00 -0.18185684224E+00  0.65588931826E+02  0.66013039534E+02  0.74470750000E+01 0. -1.
        -31    1    1    2    0    0 -0.56693245106E+00  0.18185684224E+00  0.53985882401E+02  0.54500356962E+02  0.74470750000E+01 0.  1.
<mgrwt>
<rscale>  0 0.15011414E+02</rscale>
<asrwt>0</asrwt>
<pdfrwt beam="1">  1        2 0.99648908E+00 0.15011414E+02</pdfrwt>
<pdfrwt beam="2">  1       -2 0.99672424E+00 0.15011414E+02</pdfrwt>
<totfact>-0.82545216E-14</totfact>
</mgrwt>
</event>
<event>
 4    1 -0.5010510E-019  0.1503216E+02  0.7818608E-02  0.1867089E+00
          2   -1    0    0  501    0  0.00000000000E+00  0.00000000000E+00  0.12016912699E+03  0.12016912701E+03  0.25500000000E-02 0.  1.
         -2   -1    0    0    0  501 -0.00000000000E+00 -0.00000000000E+00 -0.47009637521E+00  0.47010329129E+00  0.25500000000E-02 0. -1.
         31    1    1    2    0    0  0.14053317379E+00 -0.65766301627E+00  0.53736001213E+02  0.54253746623E+02  0.74470750000E+01 0. -1.
        -31    1    1    2    0    0 -0.14053317379E+00  0.65766301627E+00  0.65963029399E+02  0.66385483682E+02  0.74470750000E+01 0.  1.
<mgrwt>
<rscale>  0 0.15032164E+02</rscale>
<asrwt>0</asrwt>
<pdfrwt beam="1">  1        2 0.99752956E+00 0.15032164E+02</pdfrwt>
<pdfrwt beam="2">  1       -2 0.99843921E+00 0.15032164E+02</pdfrwt>
<totfact>-0.37154076E-14</totfact>
</mgrwt>
</event>
<event>
 4    1  0.5010510E-019  0.1493773E+02  0.7818608E-02  0.1869975E+00
          2   -1    0    0  501    0  0.00000000000E+00  0.00000000000E+00  0.11979263566E+03  0.11979263568E+03  0.25500000000E-02 0. -1.
         -2   -1    0    0    0  501 -0.00000000000E+00 -0.00000000000E+00 -0.46566738683E+00  0.46567436870E+00  0.25500000000E-02 0.  1.
         31    1    1    2    0    0  0.45500840068E+00  0.22279395209E+00  0.57558750055E+02  0.58040721083E+02  0.74470750000E+01 0.  1.
        -31    1    1    2    0    0 -0.45500840068E+00 -0.22279395209E+00  0.61768218215E+02  0.62217588970E+02  0.74470750000E+01 0.  1.
<mgrwt>
<rscale>  0 0.14937730E+02</rscale>
<asrwt>0</asrwt>
<pdfrwt beam="1">  1        2 0.99437985E+00 0.14937730E+02</pdfrwt>
<pdfrwt beam="2">  1       -2 0.98905692E+00 0.14937730E+02</pdfrwt>
<totfact> 0.72556820E-14</totfact>
</mgrwt>
</event>
<event>
 4    1 -0.5010510E-019  0.1500502E+02  0.7818608E-02  0.1867915E+00
         -2   -1    0    0    0  501 -0.00000000000E+00  0.00000000000E+00  0.11987214364E+03  0.11987214366E+03  0.25500000000E-02 0.  1.
          2   -1    0    0  501    0  0.00000000000E+00 -0.00000000000E+00 -0.46956071108E+00  0.46956763505E+00  0.25500000000E-02 0. -1.
         31    1    1    2    0    0 -0.53512136608E+00  0.69549294064E+00  0.57758574988E+02  0.58243299838E+02  0.74470750000E+01 0. -1.
        -31    1    1    2    0    0  0.53512136608E+00 -0.69549294064E+00  0.61644007938E+02  0.62098411461E+02  0.74470750000E+01 0.  1.
<mgrwt>
<rscale>  0 0.15005021E+02</rscale>
<asrwt>0</asrwt>
<pdfrwt beam="2">  1        2 0.99729634E+00 0.15005021E+02</pdfrwt>
<pdfrwt beam="1">  1       -2 0.99506947E+00 0.15005021E+02</pdfrwt>
<totfact>-0.81809095E-14</totfact>
</mgrwt>
</event>
<event>
 4    1 -0.5010510E-019  0.1491770E+02  0.7818608E-02  0.1870590E+00
         -2   -1    0    0    0  501 -0.00000000000E+00  0.00000000000E+00  0.11959971090E+03  0.11959971093E+03  0.25500000000E-02 0.  1.
          2   -1    0    0  501    0  0.00000000000E+00 -0.00000000000E+00 -0.46516867441E+00  0.46517566376E+00  0.25500000000E-02 0. -1.
         31    1    1    2    0    0 -0.14553026064E+00  0.16673360351E+00  0.62430484527E+02  0.62873470586E+02  0.74470750000E+01 0.  1.
        -31    1    1    2    0    0  0.14553026064E+00 -0.16673360351E+00  0.56704057698E+02  0.57191416005E+02  0.74470750000E+01 0. -1.
<mgrwt>
<rscale>  0 0.14917702E+02</rscale>
<asrwt>0</asrwt>
<pdfrwt beam="2">  1        2 0.98799562E+00 0.14917702E+02</pdfrwt>
<pdfrwt beam="1">  1       -2 0.99278049E+00 0.14917702E+02</pdfrwt>
<totfact>-0.18558511E-13</totfact>
</mgrwt>
</event>
<event>
 4    1  0.5010510E-019  0.1493538E+02  0.7818608E-02  0.1870047E+00
          2   -1    0    0  501    0  0.00000000000E+00  0.00000000000E+00  0.12010008360E+03  0.12010008363E+03  0.25500000000E-02 0. -1.
         -2   -1    0    0    0  501 -0.00000000000E+00 -0.00000000000E+00 -0.46432933834E+00  0.46433634032E+00  0.25500000000E-02 0.  1.
         31    1    1    2    0    0 -0.16383388873E+00  0.22770527924E+00  0.63679142573E+02  0.64113733444E+02  0.74470750000E+01 0. -1.
        -31    1    1    2    0    0  0.16383388873E+00 -0.22770527924E+00  0.55956611693E+02  0.56450686528E+02  0.74470750000E+01 0.  1.
<mgrwt>
<rscale>  0 0.14935383E+02</rscale>
<asrwt>0</asrwt>
<pdfrwt beam="1">  1        2 0.99691098E+00 0.14935383E+02</pdfrwt>
<pdfrwt beam="2">  1       -2 0.98623573E+00 0.14935383E+02</pdfrwt>
<totfact> 0.24767803E-13</totfact>
</mgrwt>
</event>
<event>
 4    1  0.5010510E-019  0.1494257E+02  0.7818608E-02  0.1869826E+00
          2   -1    0    0  501    0  0.00000000000E+00  0.00000000000E+00  0.12027234356E+03  0.12027234358E+03  0.25500000000E-02 0. -1.
         -2   -1    0    0    0  501 -0.00000000000E+00 -0.00000000000E+00 -0.46411052908E+00  0.46411753436E+00  0.25500000000E-02 0.  1.
         31    1    1    2    0    0 -0.31358940932E+00 -0.45667852142E+00  0.58021869398E+02  0.58500454255E+02  0.74470750000E+01 0.  1.
        -31    1    1    2    0    0  0.31358940932E+00  0.45667852142E+00  0.61786363629E+02  0.62236006862E+02  0.74470750000E+01 0. -1.
<mgrwt>
<rscale>  0 0.14942568E+02</rscale>
<asrwt>0</asrwt>
<pdfrwt beam="1">  1        2 0.99833354E+00 0.14942568E+02</pdfrwt>
<pdfrwt beam="2">  1       -2 0.98577821E+00 0.14942568E+02</pdfrwt>
<totfact> 0.18213704E-13</totfact>
</mgrwt>
</event>
<event>
 4    1 -0.5010510E-019  0.1499379E+02  0.7818608E-02  0.1868258E+00
         -2   -1    0    0    0  501 -0.00000000000E+00  0.00000000000E+00  0.12006535655E+03  0.12006535657E+03  0.25500000000E-02 0. -1.
          2   -1    0    0  501    0  0.00000000000E+00 -0.00000000000E+00 -0.46810376625E+00  0.46811071177E+00  0.25500000000E-02 0.  1.
         31    1    1    2    0    0  0.71190146510E-01 -0.53782901662E+00  0.65192546113E+02  0.65618757401E+02  0.74470750000E+01 0. -1.
        -31    1    1    2    0    0 -0.71190146510E-01  0.53782901662E+00  0.54404706669E+02  0.54914709886E+02  0.74470750000E+01 0.  1.
<mgrwt>
<rscale>  0 0.14993794E+02</rscale>
<asrwt>0</asrwt>
<pdfrwt beam="2">  1        2 0.99422025E+00 0.14993794E+02</pdfrwt>
<pdfrwt beam="1">  1       -2 0.99665504E+00 0.14993794E+02</pdfrwt>
<totfact>-0.10988429E-13</totfact>
</mgrwt>
</event>
<event>
 4    1 -0.5010510E-019  0.1495649E+02  0.7818608E-02  0.1869399E+00
         -2   -1    0    0    0  501 -0.00000000000E+00  0.00000000000E+00  0.11967153043E+03  0.11967153046E+03  0.25500000000E-02 0. -1.
          2   -1    0    0  501    0  0.00000000000E+00 -0.00000000000E+00 -0.46731019819E+00  0.46731715551E+00  0.25500000000E-02 0.  1.
         31    1    1    2    0    0 -0.12675925680E+00  0.33428850575E-02  0.54218852734E+02  0.54728045798E+02  0.74470750000E+01 0.  1.
        -31    1    1    2    0    0  0.12675925680E+00 -0.33428850575E-02  0.64985367499E+02  0.65410801815E+02  0.74470750000E+01 0. -1.
<mgrwt>
<rscale>  0 0.14956490E+02</rscale>
<asrwt>0</asrwt>
<pdfrwt beam="2">  1        2 0.99252866E+00 0.14956490E+02</pdfrwt>
<pdfrwt beam="1">  1       -2 0.99339205E+00 0.14956490E+02</pdfrwt>
<totfact>-0.13435619E-13</totfact>
</mgrwt>
</event>
<event>
 4    1  0.5010510E-019  0.1489667E+02  0.7818608E-02  0.1871238E+00
          2   -1    0    0  501    0  0.00000000000E+00  0.00000000000E+00  0.11977111812E+03  0.11977111814E+03  0.25500000000E-02 0.  1.
         -2   -1    0    0    0  501 -0.00000000000E+00 -0.00000000000E+00 -0.46319396650E+00  0.46320098564E+00  0.25500000000E-02 0. -1.
         31    1    1    2    0    0 -0.73649145235E-01  0.87424926782E-01  0.59045159382E+02  0.59513047643E+02  0.74470750000E+01 0. -1.
        -31    1    1    2    0    0  0.73649145235E-01 -0.87424926782E-01  0.60262764769E+02  0.60721271487E+02  0.74470750000E+01 0.  1.
<mgrwt>
<rscale>  0 0.14896668E+02</rscale>
<asrwt>0</asrwt>
<pdfrwt beam="1">  1        2 0.99418147E+00 0.14896668E+02</pdfrwt>
<pdfrwt beam="2">  1       -2 0.98382312E+00 0.14896668E+02</pdfrwt>
<totfact> 0.71079082E-13</totfact>
</mgrwt>
</event>
<event>
 4    1 -0.5010510E-019  0.1496191E+02  0.7818608E-02  0.1869233E+00
         -2   -1    0    0    0  501 -0.00000000000E+00  0.00000000000E+00  0.12003413047E+03  0.12003413050E+03  0.25500000000E-02 0. -1.
          2   -1    0    0  501    0  0.00000000000E+00 -0.00000000000E+00 -0.46623637485E+00  0.46624334819E+00  0.25500000000E-02 0.  1.
         31    1    1    2    0    0 -0.70618234485E+00 -0.41114996224E-01  0.59192684223E+02  0.59663499525E+02  0.74470750000E+01 0.  1.
        -31    1    1    2    0    0  0.70618234485E+00  0.41114996224E-01  0.60375209876E+02  0.60836874325E+02  0.74470750000E+01 0.  1.
<mgrwt>
<rscale>  0 0.14961912E+02</rscale>
<asrwt>0</asrwt>
<pdfrwt beam="2">  1        2 0.99026844E+00 0.14961912E+02</pdfrwt>
<pdfrwt beam="1">  1       -2 0.99638140E+00 0.14961912E+02</pdfrwt>
<totfact>-0.15580617E-13</totfact>
</mgrwt>
</event>
<event>
 4    1 -0.5010510E-019  0.1497619E+02  0.7818608E-02  0.1868796E+00
          2   -1    0    0  501    0  0.00000000000E+00  0.00000000000E+00  0.11956283387E+03  0.11956283390E+03  0.25500000000E-02 0.  1.
         -2   -1    0    0    0  501 -0.00000000000E+00 -0.00000000000E+00 -0.46896787964E+00  0.46897481236E+00  0.25500000000E-02 0. -1.
         31    1    1    2    0    0  0.98046087893E-01 -0.94429801102E-01  0.53369311107E+02  0.53886555133E+02  0.74470750000E+01 0. -1.
        -31    1    1    2    0    0 -0.98046087893E-01  0.94429801102E-01  0.65724554886E+02  0.66145253579E+02  0.74470750000E+01 0.  1.
<mgrwt>
<rscale>  0 0.14976187E+02</rscale>
<asrwt>0</asrwt>
<pdfrwt beam="1">  1        2 0.99250698E+00 0.14976187E+02</pdfrwt>
<pdfrwt beam="2">  1       -2 0.99603211E+00 0.14976187E+02</pdfrwt>
<totfact>-0.13646782E-13</totfact>
</mgrwt>
</event>
<event>
 4    1 -0.5010510E-019  0.1498636E+02  0.7818608E-02  0.1868485E+00
          2   -1    0    0  501    0  0.00000000000E+00  0.00000000000E+00  0.11984593312E+03  0.11984593314E+03  0.25500000000E-02 0. -1.
         -2   -1    0    0    0  501 -0.00000000000E+00 -0.00000000000E+00 -0.46849574352E+00  0.46850268323E+00  0.25500000000E-02 0.  1.
         31    1    1    2    0    0  0.46642716278E+00  0.29834322414E+00  0.64652235474E+02  0.65082079260E+02  0.74470750000E+01 0. -1.
        -31    1    1    2    0    0 -0.46642716278E+00 -0.29834322414E+00  0.54725201899E+02  0.55232356567E+02  0.74470750000E+01 0. -1.
<mgrwt>
<rscale>  0 0.14986358E+02</rscale>
<asrwt>0</asrwt>
<pdfrwt beam="1">  1        2 0.99484394E+00 0.14986358E+02</pdfrwt>
<pdfrwt beam="2">  1       -2 0.99504245E+00 0.14986358E+02</pdfrwt>
<totfact>-0.12104572E-13</totfact>
</mgrwt>
</event>
<event>
 4    1 -0.5010510E-019  0.1497982E+02  0.7818608E-02  0.1868685E+00
         -2   -1    0    0    0  501 -0.00000000000E+00  0.00000000000E+00  0.11999189305E+03  0.11999189308E+03  0.25500000000E-02 0.  1.
          2   -1    0    0  501    0  0.00000000000E+00 -0.00000000000E+00 -0.46751777354E+00  0.46752472777E+00  0.25500000000E-02 0. -1.
         31    1    1    2    0    0  0.45162561533E+00  0.55726913984E+00  0.56915441907E+02  0.57405060475E+02  0.74470750000E+01 0.  1.
        -31    1    1    2    0    0 -0.45162561533E+00 -0.55726913984E+00  0.62608933370E+02  0.63054357331E+02  0.74470750000E+01 0.  1.
<mgrwt>
<rscale>  0 0.14979822E+02</rscale>
<asrwt>0</asrwt>
<pdfrwt beam="2">  1        2 0.99297813E+00 0.14979822E+02</pdfrwt>
<pdfrwt beam="1">  1       -2 0.99604275E+00 0.14979822E+02</pdfrwt>
<totfact>-0.13178760E-13</totfact>
</mgrwt>
</event>
<event>
 4    1  0.5010510E-019  0.1493772E+02  0.7818608E-02  0.1869975E+00
          2   -1    0    0  501    0  0.00000000000E+00  0.00000000000E+00  0.11982418972E+03  0.11982418974E+03  0.25500000000E-02 0. -1.
         -2   -1    0    0    0  501 -0.00000000000E+00 -0.00000000000E+00 -0.46554406035E+00  0.46555104406E+00  0.25500000000E-02 0.  1.
         31    1    1    2    0    0  0.38370840916E+00 -0.18268493384E+00  0.56620024372E+02  0.57109252244E+02  0.74470750000E+01 0.  1.
        -31    1    1    2    0    0 -0.38370840916E+00  0.18268493384E+00  0.62738621286E+02  0.63180488545E+02  0.74470750000E+01 0.  1.
<mgrwt>
<rscale>  0 0.14937719E+02</rscale>
<asrwt>0</asrwt>
<pdfrwt beam="1">  1        2 0.99463974E+00 0.14937719E+02</pdfrwt>
<pdfrwt beam="2">  1       -2 0.98879700E+00 0.14937719E+02</pdfrwt>
<totfact> 0.90372614E-14</totfact>
</mgrwt>
</event>
<event>
 4    1 -0.5010510E-019  0.1490158E+02  0.7818608E-02  0.1871087E+00
          2   -1    0    0  501    0  0.00000000000E+00  0.00000000000E+00  0.11840787786E+03  0.11840787789E+03  0.25500000000E-02 0. -1.
         -2   -1    0    0    0  501 -0.00000000000E+00 -0.00000000000E+00 -0.46883560395E+00  0.46884253864E+00  0.25500000000E-02 0.  1.
         31    1    1    2    0    0  0.78138611338E-01  0.22170899976E+00  0.58909733934E+02  0.59379044610E+02  0.74470750000E+01 0. -1.
        -31    1    1    2    0    0 -0.78138611338E-01 -0.22170899976E+00  0.59029308320E+02  0.59497675814E+02  0.74470750000E+01 0.  1.
<mgrwt>
<rscale>  0 0.14901576E+02</rscale>
<asrwt>0</asrwt>
<pdfrwt beam="1">  1        2 0.98295590E+00 0.14901576E+02</pdfrwt>
<pdfrwt beam="2">  1       -2 0.99571434E+00 0.14901576E+02</pdfrwt>
<totfact>-0.47032964E-13</totfact>
</mgrwt>
</event>
<event>
 4    1 -0.5010510E-019  0.1497889E+02  0.7818608E-02  0.1868713E+00
          2   -1    0    0  501    0  0.00000000000E+00  0.00000000000E+00  0.11992492513E+03  0.11992492516E+03  0.25500000000E-02 0. -1.
         -2   -1    0    0    0  501 -0.00000000000E+00 -0.00000000000E+00 -0.46772074170E+00  0.46772769291E+00  0.25500000000E-02 0.  1.
         31    1    1    2    0    0  0.45199886127E+00  0.13111053343E+00  0.54573470120E+02  0.55081249622E+02  0.74470750000E+01 0.  1.
        -31    1    1    2    0    0 -0.45199886127E+00 -0.13111053343E+00  0.64883734272E+02  0.65311403232E+02  0.74470750000E+01 0. -1.
<mgrwt>
<rscale>  0 0.14978891E+02</rscale>
<asrwt>0</asrwt>
<pdfrwt beam="1">  1        2 0.99549069E+00 0.14978891E+02</pdfrwt>
<pdfrwt beam="2">  1       -2 0.99340539E+00 0.14978891E+02</pdfrwt>
<totfact>-0.10431420E-13</totfact>
</mgrwt>
</event>
<event>
 4    1 -0.5010510E-019  0.1496228E+02  0.7818608E-02  0.1869222E+00
          2   -1    0    0  501    0  0.00000000000E+00  0.00000000000E+00  0.11950923198E+03  0.11950923200E+03  0.25500000000E-02 0.  1.
         -2   -1    0    0    0  501 -0.00000000000E+00 -0.00000000000E+00 -0.46830718659E+00  0.46831412910E+00  0.25500000000E-02 0. -1.
         31    1    1    2    0    0  0.66490347292E+00  0.23497889328E+00  0.60369553335E+02  0.60831235460E+02  0.74470750000E+01 0. -1.
        -31    1    1    2    0    0 -0.66490347292E+00 -0.23497889328E+00  0.58671371456E+02  0.59146310673E+02  0.74470750000E+01 0. -1.
<mgrwt>
<rscale>  0 0.14962279E+02</rscale>
<asrwt>0</asrwt>
<pdfrwt beam="1">  1        2 0.99205830E+00 0.14962279E+02</pdfrwt>
<pdfrwt beam="2">  1       -2 0.99463263E+00 0.14962279E+02</pdfrwt>
<totfact>-0.15101501E-13</totfact>
</mgrwt>
</event>
<event>
 4    1 -0.5010510E-019  0.1495767E+02  0.7818608E-02  0.1869363E+00
         -2   -1    0    0    0  501 -0.00000000000E+00  0.00000000000E+00  0.12022191691E+03  0.12022191694E+03  0.25500000000E-02 0.  1.
          2   -1    0    0  501    0  0.00000000000E+00 -0.00000000000E+00 -0.46524396129E+00  0.46525094950E+00  0.25500000000E-02 0. -1.
         31    1    1    2    0    0  0.52176541863E+00 -0.37178263970E+00  0.57844211009E+02  0.58325141533E+02  0.74470750000E+01 0. -1.
        -31    1    1    2    0    0 -0.52176541863E+00  0.37178263970E+00  0.61912461938E+02  0.62362026353E+02  0.74470750000E+01 0.  1.
<mgrwt>
<rscale>  0 0.14957666E+02</rscale>
<asrwt>0</asrwt>
<pdfrwt beam="2">  1        2 0.98817472E+00 0.14957666E+02</pdfrwt>
<pdfrwt beam="1">  1       -2 0.99792594E+00 0.14957666E+02</pdfrwt>
<totfact>-0.13359025E-13</totfact>
</mgrwt>
</event>
<event>
 4    1  0.5010510E-019  0.1490331E+02  0.7818608E-02  0.1871033E+00
          2   -1    0    0  501    0  0.00000000000E+00  0.00000000000E+00  0.11998435640E+03  0.11998435643E+03  0.25500000000E-02 0. -1.
         -2   -1    0    0    0  501 -0.00000000000E+00 -0.00000000000E+00 -0.46278305774E+00  0.46279008312E+00  0.25500000000E-02 0.  1.
         31    1    1    2    0    0  0.16659855698E+00 -0.17545162360E+00  0.58965317946E+02  0.59434217290E+02  0.74470750000E+01 0.  1.
        -31    1    1    2    0    0 -0.16659855698E+00  0.17545162360E+00  0.60556255395E+02  0.61012929219E+02  0.74470750000E+01 0. -1.
<mgrwt>
<rscale>  0 0.14903309E+02</rscale>
<asrwt>0</asrwt>
<pdfrwt beam="1">  1        2 0.99594128E+00 0.14903309E+02</pdfrwt>
<pdfrwt beam="2">  1       -2 0.98296044E+00 0.14903309E+02</pdfrwt>
<totfact> 0.71679184E-13</totfact>
</mgrwt>
</event>
<event>
 4    1 -0.5010510E-019  0.1498228E+02  0.7818608E-02  0.1868610E+00
         -2   -1    0    0    0  501 -0.00000000000E+00  0.00000000000E+00  0.11981344886E+03  0.11981344889E+03  0.25500000000E-02 0. -1.
          2   -1    0    0  501    0  0.00000000000E+00 -0.00000000000E+00 -0.46836753496E+00  0.46837447657E+00  0.25500000000E-02 0.  1.
         31    1    1    2    0    0  0.67969107281E+00 -0.23221828783E+00  0.62701206102E+02  0.63145990197E+02  0.74470750000E+01 0. -1.
        -31    1    1    2    0    0 -0.67969107281E+00  0.23221828783E+00  0.56643875223E+02  0.57135833166E+02  0.74470750000E+01 0.  1.
<mgrwt>
<rscale>  0 0.14982276E+02</rscale>
<asrwt>0</asrwt>
<pdfrwt beam="2">  1        2 0.99477017E+00 0.14982276E+02</pdfrwt>
<pdfrwt beam="1">  1       -2 0.99457427E+00 0.14982276E+02</pdfrwt>
<totfact>-0.12220894E-13</totfact>
</mgrwt>
</event>
<event>
 4    1 -0.5010510E-019  0.1492744E+02  0.7818608E-02  0.1870291E+00
          2   -1    0    0  501    0  0.00000000000E+00  0.00000000000E+00  0.11922943281E+03  0.11922943283E+03  0.25500000000E-02 0. -1.
         -2   -1    0    0    0  501 -0.00000000000E+00 -0.00000000000E+00 -0.46722270889E+00  0.46722966751E+00  0.25500000000E-02 0.  1.
         31    1    1    2    0    0  0.32655217667E-01  0.48716651267E+00  0.60174620619E+02  0.60635651974E+02  0.74470750000E+01 0. -1.
        -31    1    1    2    0    0 -0.32655217667E-01 -0.48716651267E+00  0.58587589478E+02  0.59061010527E+02  0.74470750000E+01 0.  1.
<mgrwt>
<rscale>  0 0.14927440E+02</rscale>
<asrwt>0</asrwt>
<pdfrwt beam="1">  1        2 0.98973575E+00 0.14927440E+02</pdfrwt>
<pdfrwt beam="2">  1       -2 0.99232926E+00 0.14927440E+02</pdfrwt>
<totfact>-0.13558613E-13</totfact>
</mgrwt>
</event>
<event>
 4    1 -0.5010510E-019  0.1493396E+02  0.7818608E-02  0.1870090E+00
         -2   -1    0    0    0  501 -0.00000000000E+00  0.00000000000E+00  0.12004111191E+03  0.12004111193E+03  0.25500000000E-02 0. -1.
          2   -1    0    0  501    0  0.00000000000E+00 -0.00000000000E+00 -0.46446904732E+00  0.46447604720E+00  0.25500000000E-02 0.  1.
         31    1    1    2    0    0 -0.44978970976E+00  0.17182871992E+00  0.57730393302E+02  0.58210729877E+02  0.74470750000E+01 0.  1.
        -31    1    1    2    0    0  0.44978970976E+00 -0.17182871992E+00  0.61846249556E+02  0.62294858103E+02  0.74470750000E+01 0.  1.
<mgrwt>
<rscale>  0 0.14933962E+02</rscale>
<asrwt>0</asrwt>
<pdfrwt beam="2">  1        2 0.98652945E+00 0.14933962E+02</pdfrwt>
<pdfrwt beam="1">  1       -2 0.99642451E+00 0.14933962E+02</pdfrwt>
<totfact>-0.24320274E-13</totfact>
</mgrwt>
</event>
<event>
 4    1  0.5010510E-019  0.1495033E+02  0.7818608E-02  0.1869588E+00
          2   -1    0    0  501    0  0.00000000000E+00  0.00000000000E+00  0.12039198843E+03  0.12039198846E+03  0.25500000000E-02 0. -1.
         -2   -1    0    0    0  501 -0.00000000000E+00 -0.00000000000E+00 -0.46413102466E+00  0.46413802963E+00  0.25500000000E-02 0.  1.
         31    1    1    2    0    0  0.12046591288E+00  0.38244180942E+00  0.55854806077E+02  0.56350501877E+02  0.74470750000E+01 0. -1.
        -31    1    1    2    0    0 -0.12046591288E+00 -0.38244180942E+00  0.64073051333E+02  0.64505624615E+02  0.74470750000E+01 0. -1.
<mgrwt>
<rscale>  0 0.14950329E+02</rscale>
<asrwt>0</asrwt>
<pdfrwt beam="1">  1        2 0.99932301E+00 0.14950329E+02</pdfrwt>
<pdfrwt beam="2">  1       -2 0.98582534E+00 0.14950329E+02</pdfrwt>
<totfact> 0.81320224E-14</totfact>
</mgrwt>
</event>
<event>
 4    1 -0.5010510E-019  0.1489630E+02  0.7818608E-02  0.1871250E+00
          2   -1    0    0  501    0  0.00000000000E+00  0.00000000000E+00  0.11829044602E+03  0.11829044605E+03  0.25500000000E-02 0. -1.
         -2   -1    0    0    0  501 -0.00000000000E+00 -0.00000000000E+00 -0.46896863031E+00  0.46897556302E+00  0.25500000000E-02 0.  1.
         31    1    1    2    0    0 -0.48336828443E-01 -0.34569222939E-01  0.59800804386E+02  0.60262746890E+02  0.74470750000E+01 0. -1.
        -31    1    1    2    0    0  0.48336828443E-01  0.34569222939E-01  0.58020673004E+02  0.58496674721E+02  0.74470750000E+01 0.  1.
<mgrwt>
<rscale>  0 0.14896298E+02</rscale>
<asrwt>0</asrwt>
<pdfrwt beam="1">  1        2 0.98198599E+00 0.14896298E+02</pdfrwt>
<pdfrwt beam="2">  1       -2 0.99599184E+00 0.14896298E+02</pdfrwt>
<totfact>-0.53987538E-13</totfact>
</mgrwt>
</event>
<event>
 4    1 -0.5010510E-019  0.1492646E+02  0.7818608E-02  0.1870321E+00
         -2   -1    0    0    0  501 -0.00000000000E+00  0.00000000000E+00  0.11993927298E+03  0.11993927301E+03  0.25500000000E-02 0.  1.
          2   -1    0    0  501    0  0.00000000000E+00 -0.00000000000E+00 -0.46439621147E+00  0.46440321245E+00  0.25500000000E-02 0. -1.
         31    1    1    2    0    0  0.37839832772E+00 -0.18005825221E+00  0.61797701060E+02  0.62246207825E+02  0.74470750000E+01 0. -1.
        -31    1    1    2    0    0 -0.37839832772E+00  0.18005825221E+00  0.57677175712E+02  0.58157468398E+02  0.74470750000E+01 0.  1.
<mgrwt>
<rscale>  0 0.14926455E+02</rscale>
<asrwt>0</asrwt>
<pdfrwt beam="2">  1        2 0.98637212E+00 0.14926455E+02</pdfrwt>
<pdfrwt beam="1">  1       -2 0.99558184E+00 0.14926455E+02</pdfrwt>
<totfact>-0.27272662E-13</totfact>
</mgrwt>
</event>
<event>
 4    1  0.5010510E-019  0.1491497E+02  0.7818608E-02  0.1870675E+00
         -2   -1    0    0    0  501 -0.00000000000E+00  0.00000000000E+00  0.11890383219E+03  0.11890383222E+03  0.25500000000E-02 0. -1.
          2   -1    0    0  501    0  0.00000000000E+00 -0.00000000000E+00 -0.46771941742E+00  0.46772636865E+00  0.25500000000E-02 0.  1.
         31    1    1    2    0    0 -0.69058402209E-01 -0.32291108775E+00  0.57499992358E+02  0.57981178738E+02  0.74470750000E+01 0.  1.
        -31    1    1    2    0    0  0.69058402209E-01  0.32291108775E+00  0.60936120416E+02  0.61390379849E+02  0.74470750000E+01 0. -1.
<mgrwt>
<rscale>  0 0.14914965E+02</rscale>
<asrwt>0</asrwt>
<pdfrwt beam="2">  1        2 0.99336945E+00 0.14914965E+02</pdfrwt>
<pdfrwt beam="1">  1       -2 0.98704757E+00 0.14914965E+02</pdfrwt>
<totfact> 0.27688653E-13</totfact>
</mgrwt>
</event>
<event>
 4    1  0.5010510E-019  0.1490785E+02  0.7818608E-02  0.1870893E+00
         -2   -1    0    0    0  501 -0.00000000000E+00  0.00000000000E+00  0.11878431553E+03  0.11878431555E+03  0.25500000000E-02 0.  1.
          2   -1    0    0  501    0  0.00000000000E+00 -0.00000000000E+00 -0.46774369274E+00  0.46775064361E+00  0.25500000000E-02 0. -1.
         31    1    1    2    0    0  0.29044297775E+00  0.12597233790E+00  0.59504965806E+02  0.59969993395E+02  0.74470750000E+01 0.  1.
        -31    1    1    2    0    0 -0.29044297775E+00 -0.12597233790E+00  0.58811606027E+02  0.59282072802E+02  0.74470750000E+01 0. -1.
<mgrwt>
<rscale>  0 0.14907854E+02</rscale>
<asrwt>0</asrwt>
<pdfrwt beam="2">  1        2 0.99341688E+00 0.14907854E+02</pdfrwt>
<pdfrwt beam="1">  1       -2 0.98605952E+00 0.14907854E+02</pdfrwt>
<totfact> 0.40039361E-13</totfact>
</mgrwt>
</event>
<event>
 4    1  0.5010510E-019  0.1492209E+02  0.7818608E-02  0.1870455E+00
          2   -1    0    0  501    0  0.00000000000E+00  0.00000000000E+00  0.12032317981E+03  0.12032317984E+03  0.25500000000E-02 0.  1.
         -2   -1    0    0    0  501 -0.00000000000E+00 -0.00000000000E+00 -0.46264351933E+00  0.46265054683E+00  0.25500000000E-02 0. -1.
         31    1    1    2    0    0 -0.23543799829E+00 -0.11528593025E+00  0.62953703674E+02  0.63393189336E+02  0.74470750000E+01 0.  1.
        -31    1    1    2    0    0  0.23543799829E+00  0.11528593025E+00  0.56906832616E+02  0.57392641046E+02  0.74470750000E+01 0. -1.
<mgrwt>
<rscale>  0 0.14922086E+02</rscale>
<asrwt>0</asrwt>
<pdfrwt beam="1">  1        2 0.99874176E+00 0.14922086E+02</pdfrwt>
<pdfrwt beam="2">  1       -2 0.98267583E+00 0.14922086E+02</pdfrwt>
<totfact> 0.32042174E-13</totfact>
</mgrwt>
</event>
<event>
 4    1 -0.5010510E-019  0.1491222E+02  0.7818608E-02  0.1870759E+00
          2   -1    0    0  501    0  0.00000000000E+00  0.00000000000E+00  0.11867680065E+03  0.11867680067E+03  0.25500000000E-02 0.  1.
         -2   -1    0    0    0  501 -0.00000000000E+00 -0.00000000000E+00 -0.46844182459E+00  0.46844876510E+00  0.25500000000E-02 0. -1.
         31    1    1    2    0    0 -0.30579470166E-02  0.31861335616E+00  0.60558718374E+02  0.61015726014E+02  0.74470750000E+01 0.  1.
        -31    1    1    2    0    0  0.30579470166E-02 -0.31861335616E+00  0.57649640446E+02  0.58129523424E+02  0.74470750000E+01 0. -1.
<mgrwt>
<rscale>  0 0.14912222E+02</rscale>
<asrwt>0</asrwt>
<pdfrwt beam="1">  1        2 0.98517628E+00 0.14912222E+02</pdfrwt>
<pdfrwt beam="2">  1       -2 0.99489022E+00 0.14912222E+02</pdfrwt>
<totfact>-0.33801318E-13</totfact>
</mgrwt>
</event>
<event>
 4    1  0.5010510E-019  0.1495322E+02  0.7818608E-02  0.1869499E+00
          2   -1    0    0  501    0  0.00000000000E+00  0.00000000000E+00  0.12032239092E+03  0.12032239095E+03  0.25500000000E-02 0. -1.
         -2   -1    0    0    0  501 -0.00000000000E+00 -0.00000000000E+00 -0.46457888906E+00  0.46458588728E+00  0.25500000000E-02 0.  1.
         31    1    1    2    0    0  0.25592835003E-01 -0.66272517314E+00  0.59689109987E+02  0.60155537042E+02  0.74470750000E+01 0.  1.
        -31    1    1    2    0    0 -0.25592835003E-01  0.66272517314E+00  0.60168702044E+02  0.60631439793E+02  0.74470750000E+01 0. -1.
<mgrwt>
<rscale>  0 0.14953216E+02</rscale>
<asrwt>0</asrwt>
<pdfrwt beam="1">  1        2 0.99875123E+00 0.14953216E+02</pdfrwt>
<pdfrwt beam="2">  1       -2 0.98677075E+00 0.14953216E+02</pdfrwt>
<totfact> 0.10052101E-13</totfact>
</mgrwt>
</event>
<event>
 4    1 -0.5010510E-019  0.1491485E+02  0.7818608E-02  0.1870678E+00
         -2   -1    0    0    0  501 -0.00000000000E+00  0.00000000000E+00  0.12041223422E+03  0.12041223424E+03  0.25500000000E-02 0.  1.
          2   -1    0    0  501    0  0.00000000000E+00 -0.00000000000E+00 -0.46185326862E+00  0.46186030814E+00  0.25500000000E-02 0. -1.
         31    1    1    2    0    0  0.35084155122E+00 -0.13878683675E+00  0.59089878539E+02  0.59558500849E+02  0.74470750000E+01 0. -1.
        -31    1    1    2    0    0 -0.35084155122E+00  0.13878683675E+00  0.60860502408E+02  0.61315593702E+02  0.74470750000E+01 0.  1.
<mgrwt>
<rscale>  0 0.14914853E+02</rscale>
<asrwt>0</asrwt>
<pdfrwt beam="2">  1        2 0.98100652E+00 0.14914853E+02</pdfrwt>
<pdfrwt beam="1">  1       -2 0.99947159E+00 0.14914853E+02</pdfrwt>
<totfact>-0.12082765E-13</totfact>
</mgrwt>
</event>
<event>
 4    1 -0.5010510E-019  0.1494425E+02  0.7818608E-02  0.1869774E+00
         -2   -1    0    0    0  501 -0.00000000000E+00  0.00000000000E+00  0.12006606076E+03  0.12006606079E+03  0.25500000000E-02 0. -1.
          2   -1    0    0  501    0  0.00000000000E+00 -0.00000000000E+00 -0.46501274450E+00  0.46501973620E+00  0.25500000000E-02 0.  1.
         31    1    1    2    0    0  0.23253503391E+00 -0.54636005788E+00  0.60973850211E+02  0.61429812937E+02  0.74470750000E+01 0.  1.
        -31    1    1    2    0    0 -0.23253503391E+00  0.54636005788E+00  0.58627197808E+02  0.59101267590E+02  0.74470750000E+01 0. -1.
<mgrwt>
<rscale>  0 0.14944253E+02</rscale>
<asrwt>0</asrwt>
<pdfrwt beam="2">  1        2 0.98768058E+00 0.14944253E+02</pdfrwt>
<pdfrwt beam="1">  1       -2 0.99663531E+00 0.14944253E+02</pdfrwt>
<totfact>-0.19998774E-13</totfact>
</mgrwt>
</event>
<event>
 4    1 -0.5010510E-019  0.1498983E+02  0.7818608E-02  0.1868379E+00
         -2   -1    0    0    0  501 -0.00000000000E+00  0.00000000000E+00  0.11978616800E+03  0.11978616802E+03  0.25500000000E-02 0.  1.
          2   -1    0    0  501    0  0.00000000000E+00 -0.00000000000E+00 -0.46894703317E+00  0.46895396620E+00  0.25500000000E-02 0. -1.
         31    1    1    2    0    0  0.49898755367E+00  0.93437018930E-01  0.54234455941E+02  0.54745710849E+02  0.74470750000E+01 0. -1.
        -31    1    1    2    0    0 -0.49898755367E+00 -0.93437018930E-01  0.65082765022E+02  0.65509411141E+02  0.74470750000E+01 0.  1.
<mgrwt>
<rscale>  0 0.14989835E+02</rscale>
<asrwt>0</asrwt>
<pdfrwt beam="2">  1        2 0.99599527E+00 0.14989835E+02</pdfrwt>
<pdfrwt beam="1">  1       -2 0.99435349E+00 0.14989835E+02</pdfrwt>
<totfact>-0.10518140E-13</totfact>
</mgrwt>
</event>
<event>
 4    1 -0.5010510E-019  0.1490829E+02  0.7818608E-02  0.1870880E+00
         -2   -1    0    0    0  501 -0.00000000000E+00  0.00000000000E+00  0.11992292966E+03  0.11992292968E+03  0.25500000000E-02 0.  1.
          2   -1    0    0  501    0  0.00000000000E+00 -0.00000000000E+00 -0.46332996385E+00  0.46333698093E+00  0.25500000000E-02 0. -1.
         31    1    1    2    0    0 -0.29723753557E+00 -0.75037405391E-01  0.60592132432E+02  0.61048828159E+02  0.74470750000E+01 0. -1.
        -31    1    1    2    0    0  0.29723753557E+00  0.75037405391E-01  0.58867467259E+02  0.59337438505E+02  0.74470750000E+01 0. -1.
<mgrwt>
<rscale>  0 0.14908294E+02</rscale>
<asrwt>0</asrwt>
<pdfrwt beam="2">  1        2 0.98411566E+00 0.14908294E+02</pdfrwt>
<pdfrwt beam="1">  1       -2 0.99543788E+00 0.14908294E+02</pdfrwt>
<totfact>-0.39457218E-13</totfact>
</mgrwt>
</event>
<event>
 4    1 -0.5010510E-019  0.1503733E+02  0.7818608E-02  0.1866932E+00
          2   -1    0    0  501    0  0.00000000000E+00  0.00000000000E+00  0.12026908535E+03  0.12026908538E+03  0.25500000000E-02 0. -1.
         -2   -1    0    0    0  501 -0.00000000000E+00 -0.00000000000E+00 -0.47002825005E+00  0.47003516713E+00  0.25500000000E-02 0.  1.
         31    1    1    2    0    0  0.24999162399E+00 -0.34079192419E+00  0.52313115357E+02  0.52842214179E+02  0.74470750000E+01 0.  1.
        -31    1    1    2    0    0 -0.24999162399E+00  0.34079192419E+00  0.67485941743E+02  0.67896906365E+02  0.74470750000E+01 0. -1.
<mgrwt>
<rscale>  0 0.15037325E+02</rscale>
<asrwt>0</asrwt>
<pdfrwt beam="1">  1        2 0.99835553E+00 0.15037325E+02</pdfrwt>
<pdfrwt beam="2">  1       -2 0.99829832E+00 0.15037325E+02</pdfrwt>
<totfact>-0.29156638E-14</totfact>
</mgrwt>
</event>
<event>
 4    1 -0.5010510E-019  0.1496907E+02  0.7818608E-02  0.1869014E+00
         -2   -1    0    0    0  501 -0.00000000000E+00  0.00000000000E+00  0.12005993190E+03  0.12005993192E+03  0.25500000000E-02 0. -1.
          2   -1    0    0  501    0  0.00000000000E+00 -0.00000000000E+00 -0.46658250657E+00  0.46658947474E+00  0.25500000000E-02 0.  1.
         31    1    1    2    0    0 -0.98345028803E-02 -0.63776960620E-01  0.53797236421E+02  0.54310272848E+02  0.74470750000E+01 0.  1.
        -31    1    1    2    0    0  0.98345028803E-02  0.63776960620E-01  0.65796112968E+02  0.66216248549E+02  0.74470750000E+01 0. -1.
<mgrwt>
<rscale>  0 0.14969073E+02</rscale>
<asrwt>0</asrwt>
<pdfrwt beam="2">  1        2 0.99100158E+00 0.14969073E+02</pdfrwt>
<pdfrwt beam="1">  1       -2 0.99659761E+00 0.14969073E+02</pdfrwt>
<totfact>-0.14140408E-13</totfact>
</mgrwt>
</event>
<event>
 4    1 -0.5010510E-019  0.1497933E+02  0.7818608E-02  0.1868700E+00
         -2   -1    0    0    0  501 -0.00000000000E+00  0.00000000000E+00  0.11989547677E+03  0.11989547679E+03  0.25500000000E-02 0.  1.
          2   -1    0    0  501    0  0.00000000000E+00 -0.00000000000E+00 -0.46786291632E+00  0.46786986542E+00  0.25500000000E-02 0. -1.
         31    1    1    2    0    0  0.43811094263E+00  0.35488325142E+00  0.64246867305E+02  0.64679492637E+02  0.74470750000E+01 0.  1.
        -31    1    1    2    0    0 -0.43811094263E+00 -0.35488325142E+00  0.55180746546E+02  0.55683854022E+02  0.74470750000E+01 0.  1.
<mgrwt>
<rscale>  0 0.14979328E+02</rscale>
<asrwt>0</asrwt>
<pdfrwt beam="2">  1        2 0.99370523E+00 0.14979328E+02</pdfrwt>
<pdfrwt beam="1">  1       -2 0.99524836E+00 0.14979328E+02</pdfrwt>
<totfact>-0.13262684E-13</totfact>
</mgrwt>
</event>
<event>
 4    1 -0.5010510E-019  0.1500614E+02  0.7818608E-02  0.1867881E+00
         -2   -1    0    0    0  501 -0.00000000000E+00  0.00000000000E+00  0.12023764770E+03  0.12023764772E+03  0.25500000000E-02 0. -1.
          2   -1    0    0  501    0  0.00000000000E+00 -0.00000000000E+00 -0.46820336365E+00  0.46821030769E+00  0.25500000000E-02 0.  1.
         31    1    1    2    0    0  0.38370541010E+00 -0.83062358057E+00  0.59889708386E+02  0.60357876553E+02  0.74470750000E+01 0.  1.
        -31    1    1    2    0    0 -0.38370541010E+00  0.83062358057E+00  0.59879735947E+02  0.60347981478E+02  0.74470750000E+01 0. -1.
<mgrwt>
<rscale>  0 0.15006144E+02</rscale>
<asrwt>0</asrwt>
<pdfrwt beam="2">  1        2 0.99443650E+00 0.15006144E+02</pdfrwt>
<pdfrwt beam="1">  1       -2 0.99808049E+00 0.15006144E+02</pdfrwt>
<totfact>-0.72397688E-14</totfact>
</mgrwt>
</event>
<event>
 4    1 -0.5010510E-019  0.1494423E+02  0.7818608E-02  0.1869775E+00
          2   -1    0    0  501    0  0.00000000000E+00  0.00000000000E+00  0.11883600332E+03  0.11883600335E+03  0.25500000000E-02 0. -1.
         -2   -1    0    0    0  501 -0.00000000000E+00 -0.00000000000E+00 -0.46982443174E+00  0.46983135183E+00  0.25500000000E-02 0.  1.
         31    1    1    2    0    0  0.12001149040E+00 -0.50259949116E+00  0.56577303685E+02  0.57067654826E+02  0.74470750000E+01 0.  1.
        -31    1    1    2    0    0 -0.12001149040E+00  0.50259949116E+00  0.61788875208E+02  0.62238179878E+02  0.74470750000E+01 0. -1.
<mgrwt>
<rscale>  0 0.14944226E+02</rscale>
<asrwt>0</asrwt>
<pdfrwt beam="1">  1        2 0.98650412E+00 0.14944226E+02</pdfrwt>
<pdfrwt beam="2">  1       -2 0.99782029E+00 0.14944226E+02</pdfrwt>
<totfact>-0.17471701E-13</totfact>
</mgrwt>
</event>
<event>
 4    1 -0.5010510E-019  0.1491984E+02  0.7818608E-02  0.1870525E+00
          2   -1    0    0  501    0  0.00000000000E+00  0.00000000000E+00  0.11885668589E+03  0.11885668592E+03  0.25500000000E-02 0.  1.
         -2   -1    0    0    0  501 -0.00000000000E+00 -0.00000000000E+00 -0.46821057342E+00  0.46821751736E+00  0.25500000000E-02 0. -1.
         31    1    1    2    0    0 -0.24419074766E+00  0.27615920625E+00  0.61079293904E+02  0.61532714575E+02  0.74470750000E+01 0.  1.
        -31    1    1    2    0    0  0.24419074766E+00 -0.27615920625E+00  0.57309181412E+02  0.57792188859E+02  0.74470750000E+01 0. -1.
<mgrwt>
<rscale>  0 0.14919836E+02</rscale>
<asrwt>0</asrwt>
<pdfrwt beam="1">  1        2 0.98666179E+00 0.14919836E+02</pdfrwt>
<pdfrwt beam="2">  1       -2 0.99440694E+00 0.14919836E+02</pdfrwt>
<totfact>-0.26770916E-13</totfact>
</mgrwt>
</event>
<event>
 4    1 -0.5010510E-019  0.1493462E+02  0.7818608E-02  0.1870070E+00
          2   -1    0    0  501    0  0.00000000000E+00  0.00000000000E+00  0.11849279336E+03  0.11849279339E+03  0.25500000000E-02 0. -1.
         -2   -1    0    0    0  501 -0.00000000000E+00 -0.00000000000E+00 -0.47057978825E+00  0.47058669723E+00  0.25500000000E-02 0.  1.
         31    1    1    2    0    0  0.37750499641E+00  0.26364043341E+00  0.61397918648E+02  0.61849618889E+02  0.74470750000E+01 0. -1.
        -31    1    1    2    0    0 -0.37750499641E+00 -0.26364043341E+00  0.56624294927E+02  0.57113761199E+02  0.74470750000E+01 0. -1.
<mgrwt>
<rscale>  0 0.14934621E+02</rscale>
<asrwt>0</asrwt>
<pdfrwt beam="1">  1        2 0.98367246E+00 0.14934621E+02</pdfrwt>
<pdfrwt beam="2">  1       -2 0.99940676E+00 0.14934621E+02</pdfrwt>
<totfact>-0.86125513E-14</totfact>
</mgrwt>
</event>
<event>
 4    1 -0.5010510E-019  0.1498817E+02  0.7818608E-02  0.1868430E+00
          2   -1    0    0  501    0  0.00000000000E+00  0.00000000000E+00  0.11991674041E+03  0.11991674044E+03  0.25500000000E-02 0. -1.
         -2   -1    0    0    0  501 -0.00000000000E+00 -0.00000000000E+00 -0.46833261116E+00  0.46833955329E+00  0.25500000000E-02 0.  1.
         31    1    1    2    0    0  0.11581856294E+00 -0.14871650931E+00  0.53165035463E+02  0.53684406044E+02  0.74470750000E+01 0.  1.
        -31    1    1    2    0    0 -0.11581856294E+00  0.14871650931E+00  0.66283372338E+02  0.66700673948E+02  0.74470750000E+01 0. -1.
<mgrwt>
<rscale>  0 0.14988174E+02</rscale>
<asrwt>0</asrwt>
<pdfrwt beam="1">  1        2 0.99542807E+00 0.14988174E+02</pdfrwt>
<pdfrwt beam="2">  1       -2 0.99469962E+00 0.14988174E+02</pdfrwt>
<totfact>-0.11405329E-13</totfact>
</mgrwt>
</event>
<event>
 4    1 -0.5010510E-019  0.1500936E+02  0.7818608E-02  0.1867783E+00
          2   -1    0    0  501    0  0.00000000000E+00  0.00000000000E+00  0.12033654840E+03  0.12033654842E+03  0.25500000000E-02 0. -1.
         -2   -1    0    0    0  501 -0.00000000000E+00 -0.00000000000E+00 -0.46801896468E+00  0.46802591146E+00  0.25500000000E-02 0.  1.
         31    1    1    2    0    0 -0.17858973692E+00  0.79658301208E+00  0.56381521116E+02  0.56877071727E+02  0.74470750000E+01 0. -1.
        -31    1    1    2    0    0  0.17858973692E+00 -0.79658301208E+00  0.63487008316E+02  0.63927502608E+02  0.74470750000E+01 0. -1.
<mgrwt>
<rscale>  0 0.15009358E+02</rscale>
<asrwt>0</asrwt>
<pdfrwt beam="1">  1        2 0.99889674E+00 0.15009358E+02</pdfrwt>
<pdfrwt beam="2">  1       -2 0.99404954E+00 0.15009358E+02</pdfrwt>
<totfact>-0.39167192E-14</totfact>
</mgrwt>
</event>
<event>
 4    1 -0.5010510E-019  0.1498600E+02  0.7818608E-02  0.1868496E+00
          2   -1    0    0  501    0  0.00000000000E+00  0.00000000000E+00  0.11964675491E+03  0.11964675494E+03  0.25500000000E-02 0. -1.
         -2   -1    0    0    0  501 -0.00000000000E+00 -0.00000000000E+00 -0.46925341193E+00  0.46926034044E+00  0.25500000000E-02 0.  1.
         31    1    1    2    0    0 -0.51816066917E+00 -0.17270888642E+00  0.54597255264E+02  0.55105512676E+02  0.74470750000E+01 0.  1.
        -31    1    1    2    0    0  0.51816066917E+00  0.17270888642E+00  0.64580246233E+02  0.65010502601E+02  0.74470750000E+01 0. -1.
<mgrwt>
<rscale>  0 0.14986002E+02</rscale>
<asrwt>0</asrwt>
<pdfrwt beam="1">  1        2 0.99320326E+00 0.14986002E+02</pdfrwt>
<pdfrwt beam="2">  1       -2 0.99663890E+00 0.14986002E+02</pdfrwt>
<totfact>-0.11924219E-13</totfact>
</mgrwt>
</event>
<event>
 4    1 -0.5010510E-019  0.1495544E+02  0.7818608E-02  0.1869431E+00
         -2   -1    0    0    0  501 -0.00000000000E+00  0.00000000000E+00  0.11968082418E+03  0.11968082420E+03  0.25500000000E-02 0.  1.
          2   -1    0    0  501    0  0.00000000000E+00 -0.00000000000E+00 -0.46720810265E+00  0.46721506149E+00  0.25500000000E-02 0. -1.
         31    1    1    2    0    0 -0.12555860404E+00 -0.25676987368E+00  0.64530700127E+02  0.64959617307E+02  0.74470750000E+01 0.  1.
        -31    1    1    2    0    0  0.12555860404E+00  0.25676987368E+00  0.54682915948E+02  0.55188421959E+02  0.74470750000E+01 0. -1.
<mgrwt>
<rscale>  0 0.14955437E+02</rscale>
<asrwt>0</asrwt>
<pdfrwt beam="2">  1        2 0.99231297E+00 0.14955437E+02</pdfrwt>
<pdfrwt beam="1">  1       -2 0.99346805E+00 0.14955437E+02</pdfrwt>
<totfact>-0.13776828E-13</totfact>
</mgrwt>
</event>
<event>
 4    1  0.5010510E-019  0.1490356E+02  0.7818608E-02  0.1871026E+00
         -2   -1    0    0    0  501 -0.00000000000E+00  0.00000000000E+00  0.11848894070E+03  0.11848894073E+03  0.25500000000E-02 0.  1.
          2   -1    0    0  501    0  0.00000000000E+00 -0.00000000000E+00 -0.46863946791E+00  0.46864640550E+00  0.25500000000E-02 0. -1.
         31    1    1    2    0    0 -0.16914773742E+00  0.10197601791E+00  0.57603168052E+02  0.58082896844E+02  0.74470750000E+01 0. -1.
        -31    1    1    2    0    0  0.16914773742E+00 -0.10197601791E+00  0.60417133183E+02  0.60874690292E+02  0.74470750000E+01 0.  1.
<mgrwt>
<rscale>  0 0.14903558E+02</rscale>
<asrwt>0</asrwt>
<pdfrwt beam="2">  1        2 0.99530212E+00 0.14903558E+02</pdfrwt>
<pdfrwt beam="1">  1       -2 0.98362456E+00 0.14903558E+02</pdfrwt>
<totfact> 0.66864514E-13</totfact>
</mgrwt>
</event>
<event>
 4    1 -0.5010510E-019  0.1501269E+02  0.7818608E-02  0.1867682E+00
         -2   -1    0    0    0  501 -0.00000000000E+00  0.00000000000E+00  0.12020321276E+03  0.12020321279E+03  0.25500000000E-02 0.  1.
          2   -1    0    0  501    0  0.00000000000E+00 -0.00000000000E+00 -0.46874596059E+00  0.46875289660E+00  0.25500000000E-02 0. -1.
         31    1    1    2    0    0  0.66313642921E-01 -0.43984105463E+00  0.53198082321E+02  0.53718644308E+02  0.74470750000E+01 0. -1.
        -31    1    1    2    0    0 -0.66313642921E-01  0.43984105463E+00  0.66536384479E+02  0.66953321376E+02  0.74470750000E+01 0.  1.
<mgrwt>
<rscale>  0 0.15012687E+02</rscale>
<asrwt>0</asrwt>
<pdfrwt beam="2">  1        2 0.99558334E+00 0.15012687E+02</pdfrwt>
<pdfrwt beam="1">  1       -2 0.99780024E+00 0.15012687E+02</pdfrwt>
<totfact>-0.71574909E-14</totfact>
</mgrwt>
</event>
<event>
 4    1 -0.5010510E-019  0.1498553E+02  0.7818608E-02  0.1868510E+00
          2   -1    0    0  501    0  0.00000000000E+00  0.00000000000E+00  0.11944582521E+03  0.11944582524E+03  0.25500000000E-02 0. -1.
         -2   -1    0    0    0  501 -0.00000000000E+00 -0.00000000000E+00 -0.47001326358E+00  0.47002018088E+00  0.25500000000E-02 0.  1.
         31    1    1    2    0    0 -0.27581806064E+00 -0.25024922477E+00  0.53586318978E+02  0.54102598902E+02  0.74470750000E+01 0.  1.
        -31    1    1    2    0    0  0.27581806064E+00  0.25024922477E+00  0.65389492973E+02  0.65813246521E+02  0.74470750000E+01 0. -1.
<mgrwt>
<rscale>  0 0.14985531E+02</rscale>
<asrwt>0</asrwt>
<pdfrwt beam="1">  1        2 0.99154811E+00 0.14985531E+02</pdfrwt>
<pdfrwt beam="2">  1       -2 0.99823983E+00 0.14985531E+02</pdfrwt>
<totfact>-0.83814576E-14</totfact>
</mgrwt>
</event>
<event>
 4    1  0.5010510E-019  0.1492351E+02  0.7818608E-02  0.1870412E+00
         -2   -1    0    0    0  501 -0.00000000000E+00  0.00000000000E+00  0.11896629042E+03  0.11896629045E+03  0.25500000000E-02 0. -1.
          2   -1    0    0  501    0  0.00000000000E+00 -0.00000000000E+00 -0.46800982833E+00  0.46801677525E+00  0.25500000000E-02 0.  1.
         31    1    1    2    0    0 -0.34610286868E+00 -0.24240581534E+00  0.60856464208E+02  0.61311880658E+02  0.74470750000E+01 0. -1.
        -31    1    1    2    0    0  0.34610286868E+00  0.24240581534E+00  0.57641816382E+02  0.58122426564E+02  0.74470750000E+01 0.  1.
<mgrwt>
<rscale>  0 0.14923513E+02</rscale>
<asrwt>0</asrwt>
<pdfrwt beam="2">  1        2 0.99398586E+00 0.14923513E+02</pdfrwt>
<pdfrwt beam="1">  1       -2 0.98756642E+00 0.14923513E+02</pdfrwt>
<totfact> 0.20858749E-13</totfact>
</mgrwt>
</event>
<event>
 4    1 -0.5010510E-019  0.1497517E+02  0.7818608E-02  0.1868827E+00
          2   -1    0    0  501    0  0.00000000000E+00  0.00000000000E+00  0.11950541100E+03  0.11950541102E+03  0.25500000000E-02 0. -1.
         -2   -1    0    0    0  501 -0.00000000000E+00 -0.00000000000E+00 -0.46912955830E+00  0.46913648864E+00  0.25500000000E-02 0.  1.
         31    1    1    2    0    0 -0.58561150972E-02  0.67772748065E+00  0.62575821736E+02  0.63021042048E+02  0.74470750000E+01 0.  1.
        -31    1    1    2    0    0  0.58561150972E-02 -0.67772748065E+00  0.56460459703E+02  0.56953505465E+02  0.74470750000E+01 0.  1.
<mgrwt>
<rscale>  0 0.14975171E+02</rscale>
<asrwt>0</asrwt>
<pdfrwt beam="1">  1        2 0.99203350E+00 0.14975171E+02</pdfrwt>
<pdfrwt beam="2">  1       -2 0.99637228E+00 0.14975171E+02</pdfrwt>
<totfact>-0.13526812E-13</totfact>
</mgrwt>
</event>
<event>
 4    1 -0.5010510E-019  0.1494242E+02  0.7818608E-02  0.1869831E+00
          2   -1    0    0  501    0  0.00000000000E+00  0.00000000000E+00  0.11918628547E+03  0.11918628550E+03  0.25500000000E-02 0.  1.
         -2   -1    0    0    0  501 -0.00000000000E+00 -0.00000000000E+00 -0.46833032883E+00  0.46833727099E+00  0.25500000000E-02 0. -1.
         31    1    1    2    0    0  0.41694371787E+00 -0.38659115089E+00  0.57823909085E+02  0.58304259559E+02  0.74470750000E+01 0.  1.
        -31    1    1    2    0    0 -0.41694371787E+00  0.38659115089E+00  0.60894046060E+02  0.61350363213E+02  0.74470750000E+01 0.  1.
<mgrwt>
<rscale>  0 0.14942419E+02</rscale>
<asrwt>0</asrwt>
<pdfrwt beam="1">  1        2 0.98938814E+00 0.14942419E+02</pdfrwt>
<pdfrwt beam="2">  1       -2 0.99467107E+00 0.14942419E+02</pdfrwt>
<totfact>-0.19031439E-13</totfact>
</mgrwt>
</event>
<event>
 4    1  0.5010510E-019  0.1489631E+02  0.7818608E-02  0.1871249E+00
          2   -1    0    0  501    0  0.00000000000E+00  0.00000000000E+00  0.12041065662E+03  0.12041065665E+03  0.25500000000E-02 0. -1.
         -2   -1    0    0    0  501 -0.00000000000E+00 -0.00000000000E+00 -0.46071171718E+00  0.46071877414E+00  0.25500000000E-02 0.  1.
         31    1    1    2    0    0  0.50845541998E-01 -0.86852852236E-01  0.60602118394E+02  0.61058052774E+02  0.74470750000E+01 0. -1.
        -31    1    1    2    0    0 -0.50845541998E-01  0.86852852236E-01  0.59347826512E+02  0.59813322650E+02  0.74470750000E+01 0.  1.
<mgrwt>
<rscale>  0 0.14896312E+02</rscale>
<asrwt>0</asrwt>
<pdfrwt beam="1">  1        2 0.99944910E+00 0.14896312E+02</pdfrwt>
<pdfrwt beam="2">  1       -2 0.97859102E+00 0.14896312E+02</pdfrwt>
<totfact> 0.31494545E-13</totfact>
</mgrwt>
</event>
<event>
 4    1 -0.5010510E-019  0.1498030E+02  0.7818608E-02  0.1868670E+00
         -2   -1    0    0    0  501 -0.00000000000E+00  0.00000000000E+00  0.11989238024E+03  0.11989238027E+03  0.25500000000E-02 0. -1.
          2   -1    0    0  501    0  0.00000000000E+00 -0.00000000000E+00 -0.46793544727E+00  0.46794239529E+00  0.25500000000E-02 0.  1.
         31    1    1    2    0    0  0.41304480518E+00  0.64431695258E+00  0.61641155485E+02  0.62094095742E+02  0.74470750000E+01 0. -1.
        -31    1    1    2    0    0 -0.41304480518E+00 -0.64431695258E+00  0.57783289306E+02  0.58266226919E+02  0.74470750000E+01 0. -1.
<mgrwt>
<rscale>  0 0.14980296E+02</rscale>
<asrwt>0</asrwt>
<pdfrwt beam="2">  1        2 0.99385858E+00 0.14980296E+02</pdfrwt>
<pdfrwt beam="1">  1       -2 0.99522336E+00 0.14980296E+02</pdfrwt>
<totfact>-0.13118464E-13</totfact>
</mgrwt>
</event>
<event>
 4    1 -0.5010510E-019  0.1499602E+02  0.7818608E-02  0.1868190E+00
         -2   -1    0    0    0  501 -0.00000000000E+00  0.00000000000E+00  0.11987451790E+03  0.11987451793E+03  0.25500000000E-02 0. -1.
          2   -1    0    0  501    0  0.00000000000E+00 -0.00000000000E+00 -0.46898801098E+00  0.46899494341E+00  0.25500000000E-02 0.  1.
         31    1    1    2    0    0  0.76015210983E+00  0.22300854223E+00  0.62636464494E+02  0.63082590105E+02  0.74470750000E+01 0.  1.
        -31    1    1    2    0    0 -0.76015210983E+00 -0.22300854223E+00  0.56769065398E+02  0.57260922768E+02  0.74470750000E+01 0.  1.
<mgrwt>
<rscale>  0 0.14996017E+02</rscale>
<asrwt>0</asrwt>
<pdfrwt beam="2">  1        2 0.99608482E+00 0.14996017E+02</pdfrwt>
<pdfrwt beam="1">  1       -2 0.99508436E+00 0.14996017E+02</pdfrwt>
<totfact>-0.10399203E-13</totfact>
</mgrwt>
</event>
<event>
 4    1  0.5010510E-019  0.1491056E+02  0.7818608E-02  0.1870810E+00
          2   -1    0    0  501    0  0.00000000000E+00  0.00000000000E+00  0.12021364105E+03  0.12021364108E+03  0.25500000000E-02 0.  1.
         -2   -1    0    0    0  501 -0.00000000000E+00 -0.00000000000E+00 -0.46234973825E+00  0.46235677021E+00  0.25500000000E-02 0. -1.
         31    1    1    2    0    0 -0.16970010499E+00 -0.30221742605E+00  0.59503718264E+02  0.59968921508E+02  0.74470750000E+01 0. -1.
        -31    1    1    2    0    0  0.16970010499E+00  0.30221742605E+00  0.60247573047E+02  0.60707076339E+02  0.74470750000E+01 0. -1.
<mgrwt>
<rscale>  0 0.14910556E+02</rscale>
<asrwt>0</asrwt>
<pdfrwt beam="1">  1        2 0.99783358E+00 0.14910556E+02</pdfrwt>
<pdfrwt beam="2">  1       -2 0.98205080E+00 0.14910556E+02</pdfrwt>
<totfact> 0.56747883E-13</totfact>
</mgrwt>
</event>
<event>
 4    1 -0.5010510E-019  0.1490752E+02  0.7818608E-02  0.1870904E+00
         -2   -1    0    0    0  501 -0.00000000000E+00  0.00000000000E+00  0.12021367625E+03  0.12021367628E+03  0.25500000000E-02 0.  1.
          2   -1    0    0  501    0  0.00000000000E+00 -0.00000000000E+00 -0.46216146352E+00  0.46216849835E+00  0.25500000000E-02 0. -1.
         31    1    1    2    0    0 -0.31464546771E+00 -0.14286977280E-01  0.60042188791E+02  0.60503078986E+02  0.74470750000E+01 0. -1.
        -31    1    1    2    0    0  0.31464546771E+00  0.14286977280E-01  0.59709326000E+02  0.60172765794E+02  0.74470750000E+01 0. -1.
<mgrwt>
<rscale>  0 0.14907522E+02</rscale>
<asrwt>0</asrwt>
<pdfrwt beam="2">  1        2 0.98165244E+00 0.14907522E+02</pdfrwt>
<pdfrwt beam="1">  1       -2 0.99783232E+00 0.14907522E+02</pdfrwt>
<totfact>-0.38516114E-13</totfact>
</mgrwt>
</event>
<event>
 4    1 -0.5010510E-019  0.1496641E+02  0.7818608E-02  0.1869095E+00
          2   -1    0    0  501    0  0.00000000000E+00  0.00000000000E+00  0.11943446058E+03  0.11943446060E+03  0.25500000000E-02 0. -1.
         -2   -1    0    0    0  501 -0.00000000000E+00 -0.00000000000E+00 -0.46885888764E+00  0.46886582198E+00  0.25500000000E-02 0.  1.
         31    1    1    2    0    0  0.84451009728E-01  0.39899202073E+00  0.54589401713E+02  0.55096533757E+02  0.74470750000E+01 0. -1.
        -31    1    1    2    0    0 -0.84451009728E-01 -0.39899202073E+00  0.64376199975E+02  0.64806792668E+02  0.74470750000E+01 0. -1.
<mgrwt>
<rscale>  0 0.14966406E+02</rscale>
<asrwt>0</asrwt>
<pdfrwt beam="1">  1        2 0.99144459E+00 0.14966406E+02</pdfrwt>
<pdfrwt beam="2">  1       -2 0.99579735E+00 0.14966406E+02</pdfrwt>
<totfact>-0.15106166E-13</totfact>
</mgrwt>
</event>
<event>
 4    1 -0.5010510E-019  0.1492704E+02  0.7818608E-02  0.1870303E+00
         -2   -1    0    0    0  501 -0.00000000000E+00  0.00000000000E+00  0.11998916666E+03  0.11998916668E+03  0.25500000000E-02 0.  1.
          2   -1    0    0  501    0  0.00000000000E+00 -0.00000000000E+00 -0.46423930369E+00  0.46424630703E+00  0.25500000000E-02 0. -1.
         31    1    1    2    0    0 -0.23556443100E+00  0.17586455063E-02  0.63277005235E+02  0.63714157071E+02  0.74470750000E+01 0.  1.
        -31    1    1    2    0    0  0.23556443100E+00 -0.17586455063E-02  0.56247922117E+02  0.56739255919E+02  0.74470750000E+01 0. -1.
<mgrwt>
<rscale>  0 0.14927037E+02</rscale>
<asrwt>0</asrwt>
<pdfrwt beam="2">  1        2 0.98604172E+00 0.14927037E+02</pdfrwt>
<pdfrwt beam="1">  1       -2 0.99599310E+00 0.14927037E+02</pdfrwt>
<totfact>-0.27653369E-13</totfact>
</mgrwt>
</event>
<event>
 4    1 -0.5010510E-019  0.1494129E+02  0.7818608E-02  0.1869865E+00
         -2   -1    0    0    0  501 -0.00000000000E+00  0.00000000000E+00  0.11974264566E+03  0.11974264568E+03  0.25500000000E-02 0.  1.
          2   -1    0    0  501    0  0.00000000000E+00 -0.00000000000E+00 -0.46608368703E+00  0.46609066266E+00  0.25500000000E-02 0. -1.
         31    1    1    2    0    0 -0.11399638046E+00  0.25327121104E+00  0.63853084951E+02  0.64286487891E+02  0.74470750000E+01 0.  1.
        -31    1    1    2    0    0  0.11399638046E+00 -0.25327121104E+00  0.55423477019E+02  0.55922248456E+02  0.74470750000E+01 0. -1.
<mgrwt>
<rscale>  0 0.14941287E+02</rscale>
<asrwt>0</asrwt>
<pdfrwt beam="2">  1        2 0.98993608E+00 0.14941287E+02</pdfrwt>
<pdfrwt beam="1">  1       -2 0.99396994E+00 0.14941287E+02</pdfrwt>
<totfact>-0.17546696E-13</totfact>
</mgrwt>
</event>
<event>
 4    1 -0.5010510E-019  0.1489742E+02  0.7818608E-02  0.1871215E+00
          2   -1    0    0  501    0  0.00000000000E+00  0.00000000000E+00  0.11826208421E+03  0.11826208424E+03  0.25500000000E-02 0.  1.
         -2   -1    0    0    0  501 -0.00000000000E+00 -0.00000000000E+00 -0.46915167223E+00  0.46915860224E+00  0.25500000000E-02 0. -1.
         31    1    1    2    0    0  0.12127607977E+00 -0.31863125007E-01  0.58156575830E+02  0.58631578194E+02  0.74470750000E+01 0. -1.
        -31    1    1    2    0    0 -0.12127607977E+00  0.31863125007E-01  0.59636356709E+02  0.60099664648E+02  0.74470750000E+01 0.  1.
<mgrwt>
<rscale>  0 0.14897418E+02</rscale>
<asrwt>0</asrwt>
<pdfrwt beam="1">  1        2 0.98175299E+00 0.14897418E+02</pdfrwt>
<pdfrwt beam="2">  1       -2 0.99637810E+00 0.14897418E+02</pdfrwt>
<totfact>-0.53506155E-13</totfact>
</mgrwt>
</event>
<event>
 4    1 -0.5010510E-019  0.1497889E+02  0.7818608E-02  0.1868713E+00
         -2   -1    0    0    0  501 -0.00000000000E+00  0.00000000000E+00  0.11982150866E+03  0.11982150868E+03  0.25500000000E-02 0. -1.
          2   -1    0    0  501    0  0.00000000000E+00 -0.00000000000E+00 -0.46812460961E+00  0.46813155482E+00  0.25500000000E-02 0.  1.
         31    1    1    2    0    0  0.30115450492E-01 -0.51125334884E+00  0.64565501786E+02  0.64995578572E+02  0.74470750000E+01 0. -1.
        -31    1    1    2    0    0 -0.30115450492E-01  0.51125334884E+00  0.54787882262E+02  0.55294061668E+02  0.74470750000E+01 0.  1.
<mgrwt>
<rscale>  0 0.14978894E+02</rscale>
<asrwt>0</asrwt>
<pdfrwt beam="2">  1        2 0.99425649E+00 0.14978894E+02</pdfrwt>
<pdfrwt beam="1">  1       -2 0.99463891E+00 0.14978894E+02</pdfrwt>
<totfact>-0.12812447E-13</totfact>
</mgrwt>
</event>
<event>
 4    1  0.5010510E-019  0.1491363E+02  0.7818608E-02  0.1870715E+00
          2   -1    0    0  501    0  0.00000000000E+00  0.00000000000E+00  0.11996464188E+03  0.11996464191E+03  0.25500000000E-02 0.  1.
         -2   -1    0    0    0  501 -0.00000000000E+00 -0.00000000000E+00 -0.46350075677E+00  0.46350777127E+00  0.25500000000E-02 0. -1.
         31    1    1    2    0    0 -0.15750870806E+00  0.39525931423E-01  0.62534162983E+02  0.62976240260E+02  0.74470750000E+01 0.  1.
        -31    1    1    2    0    0  0.15750870806E+00 -0.39525931423E-01  0.56966978145E+02  0.57451909423E+02  0.74470750000E+01 0. -1.
<mgrwt>
<rscale>  0 0.14913635E+02</rscale>
<asrwt>0</asrwt>
<pdfrwt beam="1">  1        2 0.99578420E+00 0.14913635E+02</pdfrwt>
<pdfrwt beam="2">  1       -2 0.98447834E+00 0.14913635E+02</pdfrwt>
<totfact> 0.50959489E-13</totfact>
</mgrwt>
</event>
<event>
 4    1 -0.5010510E-019  0.1498767E+02  0.7818608E-02  0.1868445E+00
          2   -1    0    0  501    0  0.00000000000E+00  0.00000000000E+00  0.11959923146E+03  0.11959923149E+03  0.25500000000E-02 0. -1.
         -2   -1    0    0    0  501 -0.00000000000E+00 -0.00000000000E+00 -0.46954406609E+00  0.46955099031E+00  0.25500000000E-02 0.  1.
         31    1    1    2    0    0  0.40706103638E+00 -0.60405008682E+00  0.62848696972E+02  0.63292560481E+02  0.74470750000E+01 0. -1.
        -31    1    1    2    0    0 -0.40706103638E+00  0.60405008682E+00  0.56280990426E+02  0.56776222000E+02  0.74470750000E+01 0. -1.
<mgrwt>
<rscale>  0 0.14987665E+02</rscale>
<asrwt>0</asrwt>
<pdfrwt beam="1">  1        2 0.99281270E+00 0.14987665E+02</pdfrwt>
<pdfrwt beam="2">  1       -2 0.99725225E+00 0.14987665E+02</pdfrwt>
<totfact>-0.10783118E-13</totfact>
</mgrwt>
</event>
<event>
 4    1 -0.5010510E-019  0.1498509E+02  0.7818608E-02  0.1868524E+00
          2   -1    0    0  501    0  0.00000000000E+00  0.00000000000E+00  0.11962916488E+03  0.11962916490E+03  0.25500000000E-02 0.  1.
         -2   -1    0    0    0  501 -0.00000000000E+00 -0.00000000000E+00 -0.46926523289E+00  0.46927216122E+00  0.25500000000E-02 0. -1.
         31    1    1    2    0    0  0.12579427830E+00 -0.81355159886E+00  0.59901444266E+02  0.60368200582E+02  0.74470750000E+01 0. -1.
        -31    1    1    2    0    0 -0.12579427830E+00  0.81355159886E+00  0.59258455379E+02  0.59730236483E+02  0.74470750000E+01 0. -1.
<mgrwt>
<rscale>  0 0.14985089E+02</rscale>
<asrwt>0</asrwt>
<pdfrwt beam="1">  1        2 0.99305791E+00 0.14985089E+02</pdfrwt>
<pdfrwt beam="2">  1       -2 0.99666334E+00 0.14985089E+02</pdfrwt>
<totfact>-0.11999723E-13</totfact>
</mgrwt>
</event>
<event>
 4    1 -0.5010510E-019  0.1495049E+02  0.7818608E-02  0.1869583E+00
          2   -1    0    0  501    0  0.00000000000E+00  0.00000000000E+00  0.11970377300E+03  0.11970377302E+03  0.25500000000E-02 0. -1.
         -2   -1    0    0    0  501 -0.00000000000E+00 -0.00000000000E+00 -0.46680972604E+00  0.46681669082E+00  0.25500000000E-02 0.  1.
         31    1    1    2    0    0  0.44138457305E+00 -0.13403248956E+00  0.55956209577E+02  0.56451475635E+02  0.74470750000E+01 0.  1.
        -31    1    1    2    0    0 -0.44138457305E+00  0.13403248956E+00  0.63280753693E+02  0.63719114080E+02  0.74470750000E+01 0. -1.
<mgrwt>
<rscale>  0 0.14950492E+02</rscale>
<asrwt>0</asrwt>
<pdfrwt beam="1">  1        2 0.99365451E+00 0.14950492E+02</pdfrwt>
<pdfrwt beam="2">  1       -2 0.99147088E+00 0.14950492E+02</pdfrwt>
<totfact>-0.68382309E-14</totfact>
</mgrwt>
</event>
<event>
 4    1  0.5010510E-019  0.1490683E+02  0.7818608E-02  0.1870925E+00
          2   -1    0    0  501    0  0.00000000000E+00  0.00000000000E+00  0.12031498091E+03  0.12031498094E+03  0.25500000000E-02 0.  1.
         -2   -1    0    0    0  501 -0.00000000000E+00 -0.00000000000E+00 -0.46172953985E+00  0.46173658126E+00  0.25500000000E-02 0. -1.
         31    1    1    2    0    0  0.11427766009E+00 -0.26657061876E+00  0.60751382157E+02  0.61206809092E+02  0.74470750000E+01 0. -1.
        -31    1    1    2    0    0 -0.11427766009E+00  0.26657061876E+00  0.59101869213E+02  0.59569908426E+02  0.74470750000E+01 0. -1.
<mgrwt>
<rscale>  0 0.14906832E+02</rscale>
<asrwt>0</asrwt>
<pdfrwt beam="1">  1        2 0.99866640E+00 0.14906832E+02</pdfrwt>
<pdfrwt beam="2">  1       -2 0.98074169E+00 0.14906832E+02</pdfrwt>
<totfact> 0.49043045E-13</totfact>
</mgrwt>
</event>
<event>
 4    1  0.5010510E-019  0.1489928E+02  0.7818608E-02  0.1871158E+00
         -2   -1    0    0    0  501 -0.00000000000E+00  0.00000000000E+00  0.11877433596E+03  0.11877433599E+03  0.25500000000E-02 0. -1.
          2   -1    0    0  501    0  0.00000000000E+00 -0.00000000000E+00 -0.46724502546E+00  0.46725198375E+00  0.25500000000E-02 0.  1.
         31    1    1    2    0    0  0.40989632831E-02  0.11332929314E+00  0.60427729172E+02  0.60884991905E+02  0.74470750000E+01 0. -1.
        -31    1    1    2    0    0 -0.40989632831E-02 -0.11332929314E+00  0.57879361762E+02  0.58356596066E+02  0.74470750000E+01 0.  1.
<mgrwt>
<rscale>  0 0.14899280E+02</rscale>
<asrwt>0</asrwt>
<pdfrwt beam="2">  1        2 0.99236163E+00 0.14899280E+02</pdfrwt>
<pdfrwt beam="1">  1       -2 0.98597288E+00 0.14899280E+02</pdfrwt>
<totfact> 0.44487700E-13</totfact>
</mgrwt>
</event>
<event>
 4    1 -0.5010510E-019  0.1500956E+02  0.7818608E-02  0.1867777E+00
         -2   -1    0    0    0  501 -0.00000000000E+00  0.00000000000E+00  0.12010625603E+03  0.12010625606E+03  0.25500000000E-02 0.  1.
          2   -1    0    0  501    0  0.00000000000E+00 -0.00000000000E+00 -0.46892894639E+00  0.46893587970E+00  0.25500000000E-02 0. -1.
         31    1    1    2    0    0  0.11425494725E+00  0.44293538781E+00  0.53324418629E+02  0.53843864963E+02  0.74470750000E+01 0. -1.
        -31    1    1    2    0    0 -0.11425494725E+00 -0.44293538781E+00  0.66312908458E+02  0.66731326977E+02  0.74470750000E+01 0.  1.
<mgrwt>
<rscale>  0 0.15009560E+02</rscale>
<asrwt>0</asrwt>
<pdfrwt beam="2">  1        2 0.99596735E+00 0.15009560E+02</pdfrwt>
<pdfrwt beam="1">  1       -2 0.99700005E+00 0.15009560E+02</pdfrwt>
<totfact>-0.84962030E-14</totfact>
</mgrwt>
</event>
<event>
 4    1 -0.5010510E-019  0.1501558E+02  0.7818608E-02  0.1867593E+00
         -2   -1    0    0    0  501 -0.00000000000E+00  0.00000000000E+00  0.11996979336E+03  0.11996979339E+03  0.25500000000E-02 0.  1.
          2   -1    0    0  501    0  0.00000000000E+00 -0.00000000000E+00 -0.46983924598E+00  0.46984616585E+00  0.25500000000E-02 0. -1.
         31    1    1    2    0    0  0.53995461447E+00  0.29728276621E+00  0.53921196282E+02  0.54436515893E+02  0.74470750000E+01 0. -1.
        -31    1    1    2    0    0 -0.53995461447E+00 -0.29728276621E+00  0.65578757835E+02  0.66003123663E+02  0.74470750000E+01 0.  1.
<mgrwt>
<rscale>  0 0.15015583E+02</rscale>
<asrwt>0</asrwt>
<pdfrwt beam="2">  1        2 0.99788877E+00 0.15015583E+02</pdfrwt>
<pdfrwt beam="1">  1       -2 0.99587921E+00 0.15015583E+02</pdfrwt>
<totfact>-0.64894149E-14</totfact>
</mgrwt>
</event>
<event>
 4    1  0.5010510E-019  0.1494388E+02  0.7818608E-02  0.1869786E+00
          2   -1    0    0  501    0  0.00000000000E+00  0.00000000000E+00  0.12025749530E+03  0.12025749532E+03  0.25500000000E-02 0. -1.
         -2   -1    0    0    0  501 -0.00000000000E+00 -0.00000000000E+00 -0.46424952777E+00  0.46425653096E+00  0.25500000000E-02 0.  1.
         31    1    1    2    0    0  0.26671835207E+00  0.21527165855E+00  0.63963993374E+02  0.64396963088E+02  0.74470750000E+01 0. -1.
        -31    1    1    2    0    0 -0.26671835207E+00 -0.21527165855E+00  0.55829252393E+02  0.56324788765E+02  0.74470750000E+01 0.  1.
<mgrwt>
<rscale>  0 0.14943883E+02</rscale>
<asrwt>0</asrwt>
<pdfrwt beam="1">  1        2 0.99821191E+00 0.14943883E+02</pdfrwt>
<pdfrwt beam="2">  1       -2 0.98607183E+00 0.14943883E+02</pdfrwt>
<totfact> 0.17500086E-13</totfact>
</mgrwt>
</event>
<event>
 4    1  0.5010510E-019  0.1492573E+02  0.7818608E-02  0.1870343E+00
         -2   -1    0    0    0  501 -0.00000000000E+00  0.00000000000E+00  0.11855220508E+03  0.11855220511E+03  0.25500000000E-02 0. -1.
          2   -1    0    0  501    0  0.00000000000E+00 -0.00000000000E+00 -0.46978420530E+00  0.46979112598E+00  0.25500000000E-02 0.  1.
         31    1    1    2    0    0 -0.14726662493E+00 -0.46095573766E+00  0.58756669012E+02  0.59228702899E+02  0.74470750000E+01 0.  1.
        -31    1    1    2    0    0  0.14726662493E+00  0.46095573766E+00  0.59325751864E+02  0.59793293336E+02  0.74470750000E+01 0. -1.
<mgrwt>
<rscale>  0 0.14925732E+02</rscale>
<asrwt>0</asrwt>
<pdfrwt beam="2">  1        2 0.99772579E+00 0.14925732E+02</pdfrwt>
<pdfrwt beam="1">  1       -2 0.98415714E+00 0.14925732E+02</pdfrwt>
<totfact> 0.36772026E-13</totfact>
</mgrwt>
</event>
<event>
 4    1 -0.5010510E-019  0.1491823E+02  0.7818608E-02  0.1870574E+00
         -2   -1    0    0    0  501 -0.00000000000E+00  0.00000000000E+00  0.11968136781E+03  0.11968136784E+03  0.25500000000E-02 0. -1.
          2   -1    0    0  501    0  0.00000000000E+00 -0.00000000000E+00 -0.46488408996E+00  0.46489108359E+00  0.25500000000E-02 0.  1.
         31    1    1    2    0    0  0.19706122494E+00 -0.17048989467E+00  0.56918278635E+02  0.57403983039E+02  0.74470750000E+01 0.  1.
        -31    1    1    2    0    0 -0.19706122494E+00  0.17048989467E+00  0.62298205083E+02  0.62742275880E+02  0.74470750000E+01 0. -1.
<mgrwt>
<rscale>  0 0.14918229E+02</rscale>
<asrwt>0</asrwt>
<pdfrwt beam="2">  1        2 0.98739614E+00 0.14918229E+02</pdfrwt>
<pdfrwt beam="1">  1       -2 0.99345333E+00 0.14918229E+02</pdfrwt>
<totfact>-0.22478135E-13</totfact>
</mgrwt>
</event>
<event>
 4    1  0.5010510E-019  0.1491166E+02  0.7818608E-02  0.1870776E+00
         -2   -1    0    0    0  501 -0.00000000000E+00  0.00000000000E+00  0.11887099102E+03  0.11887099105E+03  0.25500000000E-02 0.  1.
          2   -1    0    0  501    0  0.00000000000E+00 -0.00000000000E+00 -0.46764153748E+00  0.46764848987E+00  0.25500000000E-02 0. -1.
         31    1    1    2    0    0  0.27966274851E-01  0.81121304967E-01  0.56393295912E+02  0.56882950984E+02  0.74470750000E+01 0. -1.
        -31    1    1    2    0    0 -0.27966274851E-01 -0.81121304967E-01  0.62010053572E+02  0.62455688554E+02  0.74470750000E+01 0. -1.
<mgrwt>
<rscale>  0 0.14911664E+02</rscale>
<asrwt>0</asrwt>
<pdfrwt beam="2">  1        2 0.99320361E+00 0.14911664E+02</pdfrwt>
<pdfrwt beam="1">  1       -2 0.98677537E+00 0.14911664E+02</pdfrwt>
<totfact> 0.31321744E-13</totfact>
</mgrwt>
</event>
<event>
 4    1 -0.5010510E-019  0.1491221E+02  0.7818608E-02  0.1870759E+00
         -2   -1    0    0    0  501 -0.00000000000E+00  0.00000000000E+00  0.11984941778E+03  0.11984941780E+03  0.25500000000E-02 0. -1.
          2   -1    0    0  501    0  0.00000000000E+00 -0.00000000000E+00 -0.46385748174E+00  0.46386449085E+00  0.25500000000E-02 0.  1.
         31    1    1    2    0    0 -0.18468902161E+00  0.21292925657E+00  0.57798965936E+02  0.58277429921E+02  0.74470750000E+01 0.  1.
        -31    1    1    2    0    0  0.18468902161E+00 -0.21292925657E+00  0.61586594358E+02  0.62035852373E+02  0.74470750000E+01 0. -1.
<mgrwt>
<rscale>  0 0.14912206E+02</rscale>
<asrwt>0</asrwt>
<pdfrwt beam="2">  1        2 0.98522945E+00 0.14912206E+02</pdfrwt>
<pdfrwt beam="1">  1       -2 0.99483440E+00 0.14912206E+02</pdfrwt>
<totfact>-0.33532378E-13</totfact>
</mgrwt>
</event>
<event>
 4    1 -0.5010510E-019  0.1493576E+02  0.7818608E-02  0.1870035E+00
         -2   -1    0    0    0  501 -0.00000000000E+00  0.00000000000E+00  0.12002620116E+03  0.12002620118E+03  0.25500000000E-02 0. -1.
          2   -1    0    0  501    0  0.00000000000E+00 -0.00000000000E+00 -0.46463891256E+00  0.46464590988E+00  0.25500000000E-02 0.  1.
         31    1    1    2    0    0 -0.46481005213E+00  0.28150174904E+00  0.58791130668E+02  0.59263405765E+02  0.74470750000E+01 0.  1.
        -31    1    1    2    0    0  0.46481005213E+00 -0.28150174904E+00  0.60770431576E+02  0.61227441329E+02  0.74470750000E+01 0. -1.
<mgrwt>
<rscale>  0 0.14935765E+02</rscale>
<asrwt>0</asrwt>
<pdfrwt beam="2">  1        2 0.98688838E+00 0.14935765E+02</pdfrwt>
<pdfrwt beam="1">  1       -2 0.99630263E+00 0.14935765E+02</pdfrwt>
<totfact>-0.23483820E-13</totfact>
</mgrwt>
</event>
<event>
 4    1  0.5010510E-019  0.1491250E+02  0.7818608E-02  0.1870751E+00
          2   -1    0    0  501    0  0.00000000000E+00  0.00000000000E+00  0.11977838515E+03  0.11977838517E+03  0.25500000000E-02 0.  1.
         -2   -1    0    0    0  501 -0.00000000000E+00 -0.00000000000E+00 -0.46415059950E+00  0.46415760418E+00  0.25500000000E-02 0. -1.
         31    1    1    2    0    0  0.22420412015E+00  0.21284717416E+00  0.58021765015E+02  0.58498544536E+02  0.74470750000E+01 0.  1.
        -31    1    1    2    0    0 -0.22420412015E+00 -0.21284717416E+00  0.61292469532E+02  0.61743998241E+02  0.74470750000E+01 0.  1.
<mgrwt>
<rscale>  0 0.14912496E+02</rscale>
<asrwt>0</asrwt>
<pdfrwt beam="1">  1        2 0.99424947E+00 0.14912496E+02</pdfrwt>
<pdfrwt beam="2">  1       -2 0.98584736E+00 0.14912496E+02</pdfrwt>
<totfact> 0.40227075E-13</totfact>
</mgrwt>
</event>
<event>
 4    1 -0.5010510E-019  0.1490318E+02  0.7818608E-02  0.1871037E+00
         -2   -1    0    0    0  501 -0.00000000000E+00  0.00000000000E+00  0.12000046302E+03  0.12000046305E+03  0.25500000000E-02 0.  1.
          2   -1    0    0  501    0  0.00000000000E+00 -0.00000000000E+00 -0.46271291479E+00  0.46271994123E+00  0.25500000000E-02 0. -1.
         31    1    1    2    0    0  0.41484224316E-01  0.22887125344E+00  0.58841617497E+02  0.59311457398E+02  0.74470750000E+01 0.  1.
        -31    1    1    2    0    0 -0.41484224316E-01 -0.22887125344E+00  0.60696132611E+02  0.61151725592E+02  0.74470750000E+01 0.  1.
<mgrwt>
<rscale>  0 0.14903179E+02</rscale>
<asrwt>0</asrwt>
<pdfrwt beam="2">  1        2 0.98281254E+00 0.14903179E+02</pdfrwt>
<pdfrwt beam="1">  1       -2 0.99607388E+00 0.14903179E+02</pdfrwt>
<totfact>-0.46523779E-13</totfact>
</mgrwt>
</event>
<event>
 4    1 -0.5010510E-019  0.1496905E+02  0.7818608E-02  0.1869015E+00
         -2   -1    0    0    0  501 -0.00000000000E+00  0.00000000000E+00  0.12009243301E+03  0.12009243304E+03  0.25500000000E-02 0. -1.
          2   -1    0    0  501    0  0.00000000000E+00 -0.00000000000E+00 -0.46645458669E+00  0.46646155677E+00  0.25500000000E-02 0.  1.
         31    1    1    2    0    0  0.11322980248E+00 -0.17170320622E+00  0.54022821501E+02  0.54534085414E+02  0.74470750000E+01 0.  1.
        -31    1    1    2    0    0 -0.11322980248E+00  0.17170320622E+00  0.65603156923E+02  0.66024809180E+02  0.74470750000E+01 0. -1.
<mgrwt>
<rscale>  0 0.14969046E+02</rscale>
<asrwt>0</asrwt>
<pdfrwt beam="2">  1        2 0.99073198E+00 0.14969046E+02</pdfrwt>
<pdfrwt beam="1">  1       -2 0.99686529E+00 0.14969046E+02</pdfrwt>
<totfact>-0.13771629E-13</totfact>
</mgrwt>
</event>
<event>
 4    1  0.5010510E-019  0.1493950E+02  0.7818608E-02  0.1869920E+00
          2   -1    0    0  501    0  0.00000000000E+00  0.00000000000E+00  0.11992165390E+03  0.11992165393E+03  0.25500000000E-02 0.  1.
         -2   -1    0    0    0  501 -0.00000000000E+00 -0.00000000000E+00 -0.46527647031E+00  0.46528345804E+00  0.25500000000E-02 0. -1.
         31    1    1    2    0    0 -0.11144651766E+00  0.56171221138E+00  0.58911190967E+02  0.59382786127E+02  0.74470750000E+01 0.  1.
        -31    1    1    2    0    0  0.11144651766E+00 -0.56171221138E+00  0.60545186461E+02  0.61004151257E+02  0.74470750000E+01 0.  1.
<mgrwt>
<rscale>  0 0.14939497E+02</rscale>
<asrwt>0</asrwt>
<pdfrwt beam="1">  1        2 0.99544343E+00 0.14939497E+02</pdfrwt>
<pdfrwt beam="2">  1       -2 0.98823397E+00 0.14939497E+02</pdfrwt>
<totfact> 0.12519053E-13</totfact>
</mgrwt>
</event>
<event>
 4    1 -0.5010510E-019  0.1497197E+02  0.7818608E-02  0.1868925E+00
         -2   -1    0    0    0  501 -0.00000000000E+00  0.00000000000E+00  0.11990174966E+03  0.11990174969E+03  0.25500000000E-02 0.  1.
          2   -1    0    0  501    0  0.00000000000E+00 -0.00000000000E+00 -0.46737904111E+00  0.46738599740E+00  0.25500000000E-02 0. -1.
         31    1    1    2    0    0 -0.13655602270E+00  0.30387182207E+00  0.65229309252E+02  0.65653885621E+02  0.74470750000E+01 0.  1.
        -31    1    1    2    0    0  0.13655602270E+00 -0.30387182207E+00  0.54205061367E+02  0.54715250063E+02  0.74470750000E+01 0. -1.
<mgrwt>
<rscale>  0 0.14971972E+02</rscale>
<asrwt>0</asrwt>
<pdfrwt beam="2">  1        2 0.99268172E+00 0.14971972E+02</pdfrwt>
<pdfrwt beam="1">  1       -2 0.99529623E+00 0.14971972E+02</pdfrwt>
<totfact>-0.14266564E-13</totfact>
</mgrwt>
</event>
<event>
 4    1  0.5010510E-019  0.1491006E+02  0.7818608E-02  0.1870826E+00
          2   -1    0    0  501    0  0.00000000000E+00  0.00000000000E+00  0.11978888041E+03  0.11978888044E+03  0.25500000000E-02 0. -1.
         -2   -1    0    0    0  501 -0.00000000000E+00 -0.00000000000E+00 -0.46395812260E+00  0.46396513018E+00  0.25500000000E-02 0.  1.
         31    1    1    2    0    0  0.29348328961E-01  0.86576721703E-03  0.56895975160E+02  0.57381284209E+02  0.74470750000E+01 0.  1.
        -31    1    1    2    0    0 -0.29348328961E-01 -0.86576721703E-03  0.62428947128E+02  0.62871561359E+02  0.74470750000E+01 0. -1.
<mgrwt>
<rscale>  0 0.14910057E+02</rscale>
<asrwt>0</asrwt>
<pdfrwt beam="1">  1        2 0.99433466E+00 0.14910057E+02</pdfrwt>
<pdfrwt beam="2">  1       -2 0.98544046E+00 0.14910057E+02</pdfrwt>
<totfact> 0.45375638E-13</totfact>
</mgrwt>
</event>
<event>
 4    1 -0.5010510E-019  0.1496857E+02  0.7818608E-02  0.1869029E+00
         -2   -1    0    0    0  501 -0.00000000000E+00  0.00000000000E+00  0.11948059207E+03  0.11948059210E+03  0.25500000000E-02 0.  1.
          2   -1    0    0  501    0  0.00000000000E+00 -0.00000000000E+00 -0.46881370854E+00  0.46882064355E+00  0.25500000000E-02 0. -1.
         31    1    1    2    0    0 -0.53942651493E+00 -0.43455254336E+00  0.57299446532E+02  0.57785511297E+02  0.74470750000E+01 0. -1.
        -31    1    1    2    0    0  0.53942651493E+00  0.43455254336E+00  0.61712331830E+02  0.62163901444E+02  0.74470750000E+01 0. -1.
<mgrwt>
<rscale>  0 0.14968575E+02</rscale>
<asrwt>0</asrwt>
<pdfrwt beam="2">  1        2 0.99570328E+00 0.14968575E+02</pdfrwt>
<pdfrwt beam="1">  1       -2 0.99182567E+00 0.14968575E+02</pdfrwt>
<totfact>-0.67495654E-14</totfact>
</mgrwt>
</event>
<event>
 4    1 -0.5010510E-019  0.1495541E+02  0.7818608E-02  0.1869432E+00
          2   -1    0    0  501    0  0.00000000000E+00  0.00000000000E+00  0.11939485146E+03  0.11939485149E+03  0.25500000000E-02 0.  1.
         -2   -1    0    0    0  501 -0.00000000000E+00 -0.00000000000E+00 -0.46832538145E+00  0.46833232369E+00  0.25500000000E-02 0. -1.
         31    1    1    2    0    0  0.66663398800E+00 -0.96891406140E-01  0.58999920838E+02  0.59471870441E+02  0.74470750000E+01 0. -1.
        -31    1    1    2    0    0 -0.66663398800E+00  0.96891406140E-01  0.59926605242E+02  0.60391313371E+02  0.74470750000E+01 0. -1.
<mgrwt>
<rscale>  0 0.14955408E+02</rscale>
<asrwt>0</asrwt>
<pdfrwt beam="1">  1        2 0.99111267E+00 0.14955408E+02</pdfrwt>
<pdfrwt beam="2">  1       -2 0.99466741E+00 0.14955408E+02</pdfrwt>
<totfact>-0.16235875E-13</totfact>
</mgrwt>
</event>
<event>
 4    1 -0.5010510E-019  0.1493680E+02  0.7818608E-02  0.1870003E+00
          2   -1    0    0  501    0  0.00000000000E+00  0.00000000000E+00  0.11878433932E+03  0.11878433935E+03  0.25500000000E-02 0.  1.
         -2   -1    0    0    0  501 -0.00000000000E+00 -0.00000000000E+00 -0.46956198039E+00  0.46956890434E+00  0.25500000000E-02 0. -1.
         31    1    1    2    0    0  0.23982965490E-02  0.14308534465E+00  0.54801816749E+02  0.55305682567E+02  0.74470750000E+01 0. -1.
        -31    1    1    2    0    0 -0.23982965490E-02 -0.14308534465E+00  0.63512960589E+02  0.63948225683E+02  0.74470750000E+01 0.  1.
<mgrwt>
<rscale>  0 0.14936803E+02</rscale>
<asrwt>0</asrwt>
<pdfrwt beam="1">  1        2 0.98607475E+00 0.14936803E+02</pdfrwt>
<pdfrwt beam="2">  1       -2 0.99726339E+00 0.14936803E+02</pdfrwt>
<totfact>-0.22059860E-13</totfact>
</mgrwt>
</event>
<event>
 4    1 -0.5010510E-019  0.1491904E+02  0.7818608E-02  0.1870549E+00
         -2   -1    0    0    0  501 -0.00000000000E+00  0.00000000000E+00  0.12014461127E+03  0.12014461129E+03  0.25500000000E-02 0.  1.
          2   -1    0    0  501    0  0.00000000000E+00 -0.00000000000E+00 -0.46314177038E+00  0.46314879032E+00  0.25500000000E-02 0. -1.
         31    1    1    2    0    0 -0.11786311718E+00 -0.31468374438E+00  0.57662970178E+02  0.58142841118E+02  0.74470750000E+01 0. -1.
        -31    1    1    2    0    0  0.11786311718E+00  0.31468374438E+00  0.62018499318E+02  0.62464918965E+02  0.74470750000E+01 0.  1.
<mgrwt>
<rscale>  0 0.14919037E+02</rscale>
<asrwt>0</asrwt>
<pdfrwt beam="2">  1        2 0.98372446E+00 0.14919037E+02</pdfrwt>
<pdfrwt beam="1">  1       -2 0.99726935E+00 0.14919037E+02</pdfrwt>
<totfact>-0.32222171E-13</totfact>
</mgrwt>
</event>
<event>
 4    1 -0.5010510E-019  0.1490122E+02  0.7818608E-02  0.1871098E+00
         -2   -1    0    0    0  501 -0.00000000000E+00  0.00000000000E+00  0.12022210793E+03  0.12022210796E+03  0.25500000000E-02 0.  1.
          2   -1    0    0  501    0  0.00000000000E+00 -0.00000000000E+00 -0.46173868750E+00  0.46174572876E+00  0.25500000000E-02 0. -1.
         31    1    1    2    0    0  0.19497857301E+00 -0.11662233702E+00  0.60146511059E+02  0.60606215325E+02  0.74470750000E+01 0.  1.
        -31    1    1    2    0    0 -0.19497857301E+00  0.11662233702E+00  0.59613858183E+02  0.60077638360E+02  0.74470750000E+01 0.  1.
<mgrwt>
<rscale>  0 0.14901225E+02</rscale>
<asrwt>0</asrwt>
<pdfrwt beam="2">  1        2 0.98075815E+00 0.14901225E+02</pdfrwt>
<pdfrwt beam="1">  1       -2 0.99789854E+00 0.14901225E+02</pdfrwt>
<totfact>-0.43657176E-13</totfact>
</mgrwt>
</event>
<event>
 4    1 -0.5010510E-019  0.1494742E+02  0.7818608E-02  0.1869677E+00
         -2   -1    0    0    0  501 -0.00000000000E+00  0.00000000000E+00  0.11982542303E+03  0.11982542306E+03  0.25500000000E-02 0.  1.
          2   -1    0    0  501    0  0.00000000000E+00 -0.00000000000E+00 -0.46614443316E+00  0.46615140787E+00  0.25500000000E-02 0. -1.
         31    1    1    2    0    0 -0.23162964749E+00 -0.17718250211E-01  0.64396155167E+02  0.64825748685E+02  0.74470750000E+01 0.  1.
        -31    1    1    2    0    0  0.23162964749E+00  0.17718250211E-01  0.54963123428E+02  0.55465825778E+02  0.74470750000E+01 0. -1.
<mgrwt>
<rscale>  0 0.14947425E+02</rscale>
<asrwt>0</asrwt>
<pdfrwt beam="2">  1        2 0.99006725E+00 0.14947425E+02</pdfrwt>
<pdfrwt beam="1">  1       -2 0.99465490E+00 0.14947425E+02</pdfrwt>
<totfact>-0.17783076E-13</totfact>
</mgrwt>
</event>
<event>
 4    1  0.5010510E-019  0.1489977E+02  0.7818608E-02  0.1871143E+00
          2   -1    0    0  501    0  0.00000000000E+00  0.00000000000E+00  0.11938995311E+03  0.11938995313E+03  0.25500000000E-02 0.  1.
         -2   -1    0    0    0  501 -0.00000000000E+00 -0.00000000000E+00 -0.46486613900E+00  0.46487313290E+00  0.25500000000E-02 0. -1.
         31    1    1    2    0    0  0.10091642374E+00 -0.14015412075E+00  0.58580847838E+02  0.59052556988E+02  0.74470750000E+01 0. -1.
        -31    1    1    2    0    0 -0.10091642374E+00  0.14015412075E+00  0.60344239129E+02  0.60802269278E+02  0.74470750000E+01 0.  1.
<mgrwt>
<rscale>  0 0.14899767E+02</rscale>
<asrwt>0</asrwt>
<pdfrwt beam="1">  1        2 0.99104356E+00 0.14899767E+02</pdfrwt>
<pdfrwt beam="2">  1       -2 0.98734883E+00 0.14899767E+02</pdfrwt>
<totfact> 0.28815206E-13</totfact>
</mgrwt>
</event>
<event>
 4    1 -0.5010510E-019  0.1495690E+02  0.7818608E-02  0.1869387E+00
          2   -1    0    0  501    0  0.00000000000E+00  0.00000000000E+00  0.11934767953E+03  0.11934767955E+03  0.25500000000E-02 0.  1.
         -2   -1    0    0    0  501 -0.00000000000E+00 -0.00000000000E+00 -0.46860404184E+00  0.46861097995E+00  0.25500000000E-02 0. -1.
         31    1    1    2    0    0 -0.19047911258E-01 -0.61479087288E+00  0.57036766206E+02  0.57524168451E+02  0.74470750000E+01 0. -1.
        -31    1    1    2    0    0  0.19047911258E-01  0.61479087288E+00  0.61842309277E+02  0.62292122081E+02  0.74470750000E+01 0.  1.
<mgrwt>
<rscale>  0 0.14956901E+02</rscale>
<asrwt>0</asrwt>
<pdfrwt beam="1">  1        2 0.99072492E+00 0.14956901E+02</pdfrwt>
<pdfrwt beam="2">  1       -2 0.99525539E+00 0.14956901E+02</pdfrwt>
<totfact>-0.16590078E-13</totfact>
</mgrwt>
</event>
<event>
 4    1  0.5010510E-019  0.1493576E+02  0.7818608E-02  0.1870035E+00
         -2   -1    0    0    0  501 -0.00000000000E+00  0.00000000000E+00  0.11864807153E+03  0.11864807156E+03  0.25500000000E-02 0.  1.
          2   -1    0    0  501    0  0.00000000000E+00 -0.00000000000E+00 -0.47003566655E+00  0.47004258353E+00  0.25500000000E-02 0. -1.
         31    1    1    2    0    0  0.67837474550E-01 -0.52573087314E+00  0.60454600777E+02  0.60913862758E+02  0.74470750000E+01 0.  1.
        -31    1    1    2    0    0 -0.67837474550E-01  0.52573087314E+00  0.57723435085E+02  0.58204251382E+02  0.74470750000E+01 0. -1.
<mgrwt>
<rscale>  0 0.14935761E+02</rscale>
<asrwt>0</asrwt>
<pdfrwt beam="2">  1        2 0.99826091E+00 0.14935761E+02</pdfrwt>
<pdfrwt beam="1">  1       -2 0.98495191E+00 0.14935761E+02</pdfrwt>
<totfact> 0.24157850E-13</totfact>
</mgrwt>
</event>
<event>
 4    1  0.5010510E-019  0.1492348E+02  0.7818608E-02  0.1870412E+00
         -2   -1    0    0    0  501 -0.00000000000E+00  0.00000000000E+00  0.11855254269E+03  0.11855254272E+03  0.25500000000E-02 0.  1.
          2   -1    0    0  501    0  0.00000000000E+00 -0.00000000000E+00 -0.46964143358E+00  0.46964835636E+00  0.25500000000E-02 0. -1.
         31    1    1    2    0    0  0.46403055960E+00  0.19855792996E-01  0.59475001519E+02  0.59941224966E+02  0.74470750000E+01 0. -1.
        -31    1    1    2    0    0 -0.46403055960E+00 -0.19855792996E-01  0.58607899737E+02  0.59080966108E+02  0.74470750000E+01 0.  1.
<mgrwt>
<rscale>  0 0.14923485E+02</rscale>
<asrwt>0</asrwt>
<pdfrwt beam="2">  1        2 0.99742379E+00 0.14923485E+02</pdfrwt>
<pdfrwt beam="1">  1       -2 0.98415875E+00 0.14923485E+02</pdfrwt>
<totfact> 0.40278325E-13</totfact>
</mgrwt>
</event>
<event>
 4    1 -0.5010510E-019  0.1496812E+02  0.7818608E-02  0.1869043E+00
          2   -1    0    0  501    0  0.00000000000E+00  0.00000000000E+00  0.11917616659E+03  0.11917616662E+03  0.25500000000E-02 0. -1.
         -2   -1    0    0    0  501 -0.00000000000E+00 -0.00000000000E+00 -0.46998273343E+00  0.46998965119E+00  0.25500000000E-02 0.  1.
         31    1    1    2    0    0  0.82610420455E-01 -0.10883985498E+00  0.65191881947E+02  0.65615997046E+02  0.74470750000E+01 0. -1.
        -31    1    1    2    0    0 -0.82610420455E-01  0.10883985498E+00  0.53514301908E+02  0.54030159221E+02  0.74470750000E+01 0.  1.
<mgrwt>
<rscale>  0 0.14968120E+02</rscale>
<asrwt>0</asrwt>
<pdfrwt beam="1">  1        2 0.98931813E+00 0.14968120E+02</pdfrwt>
<pdfrwt beam="2">  1       -2 0.99816639E+00 0.14968120E+02</pdfrwt>
<totfact>-0.10592154E-13</totfact>
</mgrwt>
</event>
<event>
 4    1  0.5010510E-019  0.1490923E+02  0.7818608E-02  0.1870851E+00
         -2   -1    0    0    0  501 -0.00000000000E+00  0.00000000000E+00  0.11901842234E+03  0.11901842236E+03  0.25500000000E-02 0.  1.
          2   -1    0    0  501    0  0.00000000000E+00 -0.00000000000E+00 -0.46690991694E+00  0.46691688022E+00  0.25500000000E-02 0. -1.
         31    1    1    2    0    0 -0.32082873542E+00 -0.94523167419E-01  0.59456308871E+02  0.59921811190E+02  0.74470750000E+01 0.  1.
        -31    1    1    2    0    0  0.32082873542E+00  0.94523167419E-01  0.59095203547E+02  0.59563528052E+02  0.74470750000E+01 0.  1.
<mgrwt>
<rscale>  0 0.14909232E+02</rscale>
<asrwt>0</asrwt>
<pdfrwt beam="2">  1        2 0.99166067E+00 0.14909232E+02</pdfrwt>
<pdfrwt beam="1">  1       -2 0.98798838E+00 0.14909232E+02</pdfrwt>
<totfact> 0.19818908E-13</totfact>
</mgrwt>
</event>
<event>
 4    1 -0.5010510E-019  0.1491828E+02  0.7818608E-02  0.1870573E+00
          2   -1    0    0  501    0  0.00000000000E+00  0.00000000000E+00  0.11818885493E+03  0.11818885495E+03  0.25500000000E-02 0.  1.
         -2   -1    0    0    0  501 -0.00000000000E+00 -0.00000000000E+00 -0.47075781885E+00  0.47076472522E+00  0.25500000000E-02 0. -1.
         31    1    1    2    0    0 -0.11410476750E+00  0.14062039993E+00  0.55809251853E+02  0.56304212209E+02  0.74470750000E+01 0. -1.
        -31    1    1    2    0    0  0.11410476750E+00 -0.14062039993E+00  0.61908845253E+02  0.62355407469E+02  0.74470750000E+01 0.  1.
<mgrwt>
<rscale>  0 0.14918276E+02</rscale>
<asrwt>0</asrwt>
<pdfrwt beam="1">  1        2 0.98116076E+00 0.14918276E+02</pdfrwt>
<pdfrwt beam="2">  1       -2 0.99977318E+00 0.14918276E+02</pdfrwt>
<totfact>-0.51694067E-14</totfact>
</mgrwt>
</event>
<event>
 4    1  0.5010510E-019  0.1491603E+02  0.7818608E-02  0.1870642E+00
          2   -1    0    0  501    0  0.00000000000E+00  0.00000000000E+00  0.12025839892E+03  0.12025839895E+03  0.25500000000E-02 0. -1.
         -2   -1    0    0    0  501 -0.00000000000E+00 -0.00000000000E+00 -0.46251728237E+00  0.46252431178E+00  0.25500000000E-02 0.  1.
         31    1    1    2    0    0 -0.34931617211E+00  0.18246601938E+00  0.60611447526E+02  0.61068500987E+02  0.74470750000E+01 0. -1.
        -31    1    1    2    0    0  0.34931617211E+00 -0.18246601938E+00  0.59184434111E+02  0.59652422270E+02  0.74470750000E+01 0.  1.
<mgrwt>
<rscale>  0 0.14916033E+02</rscale>
<asrwt>0</asrwt>
<pdfrwt beam="1">  1        2 0.99820506E+00 0.14916033E+02</pdfrwt>
<pdfrwt beam="2">  1       -2 0.98240670E+00 0.14916033E+02</pdfrwt>
<totfact> 0.45569065E-13</totfact>
</mgrwt>
</event>
<event>
 4    1 -0.5010510E-019  0.1497128E+02  0.7818608E-02  0.1868946E+00
         -2   -1    0    0    0  501 -0.00000000000E+00  0.00000000000E+00  0.11994539234E+03  0.11994539237E+03  0.25500000000E-02 0.  1.
          2   -1    0    0  501    0  0.00000000000E+00 -0.00000000000E+00 -0.46716587889E+00  0.46717283836E+00  0.25500000000E-02 0. -1.
         31    1    1    2    0    0 -0.16974492832E+00 -0.56168825534E+00  0.63609598369E+02  0.64046734794E+02  0.74470750000E+01 0.  1.
        -31    1    1    2    0    0  0.16974492832E+00  0.56168825534E+00  0.55868628091E+02  0.56365830410E+02  0.74470750000E+01 0. -1.
<mgrwt>
<rscale>  0 0.14971281E+02</rscale>
<asrwt>0</asrwt>
<pdfrwt beam="2">  1        2 0.99223215E+00 0.14971281E+02</pdfrwt>
<pdfrwt beam="1">  1       -2 0.99565534E+00 0.14971281E+02</pdfrwt>
<totfact>-0.14414900E-13</totfact>
</mgrwt>
</event>
<event>
 4    1  0.5010510E-019  0.1491428E+02  0.7818608E-02  0.1870696E+00
          2   -1    0    0  501    0  0.00000000000E+00  0.00000000000E+00  0.11980903577E+03  0.11980903580E+03  0.25500000000E-02 0.  1.
         -2   -1    0    0    0  501 -0.00000000000E+00 -0.00000000000E+00 -0.46414299221E+00  0.46414999700E+00  0.25500000000E-02 0. -1.
         31    1    1    2    0    0 -0.24181182006E+00 -0.26435244495E+00  0.60859460599E+02  0.61314445489E+02  0.74470750000E+01 0.  1.
        -31    1    1    2    0    0  0.24181182006E+00  0.26435244495E+00  0.58485432182E+02  0.58958740309E+02  0.74470750000E+01 0. -1.
<mgrwt>
<rscale>  0 0.14914281E+02</rscale>
<asrwt>0</asrwt>
<pdfrwt beam="1">  1        2 0.99450285E+00 0.14914281E+02</pdfrwt>
<pdfrwt beam="2">  1       -2 0.98583224E+00 0.14914281E+02</pdfrwt>
<totfact> 0.39539204E-13</totfact>
</mgrwt>
</event>
<event>
 4    1 -0.5010510E-019  0.1495448E+02  0.7818608E-02  0.1869461E+00
         -2   -1    0    0    0  501 -0.00000000000E+00  0.00000000000E+00  0.12003255901E+03  0.12003255904E+03  0.25500000000E-02 0.  1.
          2   -1    0    0  501    0  0.00000000000E+00 -0.00000000000E+00 -0.46577919767E+00  0.46578617785E+00  0.25500000000E-02 0. -1.
         31    1    1    2    0    0  0.35697503835E-01  0.40676940104E+00  0.64073143973E+02  0.64505762846E+02  0.74470750000E+01 0.  1.
        -31    1    1    2    0    0 -0.35697503835E-01 -0.40676940104E+00  0.55493635838E+02  0.55992582368E+02  0.74470750000E+01 0. -1.
<mgrwt>
<rscale>  0 0.14954476E+02</rscale>
<asrwt>0</asrwt>
<pdfrwt beam="2">  1        2 0.98930114E+00 0.14954476E+02</pdfrwt>
<pdfrwt beam="1">  1       -2 0.99636463E+00 0.14954476E+02</pdfrwt>
<totfact>-0.17184737E-13</totfact>
</mgrwt>
</event>
<event>
 4    1 -0.5010510E-019  0.1501144E+02  0.7818608E-02  0.1867720E+00
         -2   -1    0    0    0  501 -0.00000000000E+00  0.00000000000E+00  0.11987234181E+03  0.11987234184E+03  0.25500000000E-02 0.  1.
          2   -1    0    0  501    0  0.00000000000E+00 -0.00000000000E+00 -0.46996175459E+00  0.46996867265E+00  0.25500000000E-02 0. -1.
         31    1    1    2    0    0  0.31924423766E+00  0.87517548153E+00  0.58938172982E+02  0.59414097733E+02  0.74470750000E+01 0. -1.
        -31    1    1    2    0    0 -0.31924423766E+00 -0.87517548153E+00  0.60464207075E+02  0.60928212778E+02  0.74470750000E+01 0.  1.
<mgrwt>
<rscale>  0 0.15011440E+02</rscale>
<asrwt>0</asrwt>
<pdfrwt beam="2">  1        2 0.99814478E+00 0.15011440E+02</pdfrwt>
<pdfrwt beam="1">  1       -2 0.99507442E+00 0.15011440E+02</pdfrwt>
<totfact>-0.61620964E-14</totfact>
</mgrwt>
</event>
<event>
 4    1 -0.5010510E-019  0.1495735E+02  0.7818608E-02  0.1869373E+00
          2   -1    0    0  501    0  0.00000000000E+00  0.00000000000E+00  0.11930798833E+03  0.11930798836E+03  0.25500000000E-02 0.  1.
         -2   -1    0    0    0  501 -0.00000000000E+00 -0.00000000000E+00 -0.46878821419E+00  0.46879514958E+00  0.25500000000E-02 0. -1.
         31    1    1    2    0    0  0.16424985559E+00  0.46187030314E+00  0.55567752191E+02  0.56066695211E+02  0.74470750000E+01 0.  1.
        -31    1    1    2    0    0 -0.16424985559E+00 -0.46187030314E+00  0.63271447926E+02  0.63710088297E+02  0.74470750000E+01 0.  1.
<mgrwt>
<rscale>  0 0.14957352E+02</rscale>
<asrwt>0</asrwt>
<pdfrwt beam="1">  1        2 0.99039825E+00 0.14957352E+02</pdfrwt>
<pdfrwt beam="2">  1       -2 0.99564371E+00 0.14957352E+02</pdfrwt>
<totfact>-0.16685092E-13</totfact>
</mgrwt>
</event>
<event>
 4    1  0.5010510E-019  0.1495619E+02  0.7818608E-02  0.1869408E+00
          2   -1    0    0  501    0  0.00000000000E+00  0.00000000000E+00  0.12016579630E+03  0.12016579632E+03  0.25500000000E-02 0. -1.
         -2   -1    0    0    0  501 -0.00000000000E+00 -0.00000000000E+00 -0.46536926110E+00  0.46537624744E+00  0.25500000000E-02 0.  1.
         31    1    1    2    0    0 -0.52541957270E+00 -0.19462411034E+00  0.62963805283E+02  0.63405154728E+02  0.74470750000E+01 0. -1.
        -31    1    1    2    0    0  0.52541957270E+00  0.19462411034E+00  0.56736621753E+02  0.57226017844E+02  0.74470750000E+01 0. -1.
<mgrwt>
<rscale>  0 0.14956188E+02</rscale>
<asrwt>0</asrwt>
<pdfrwt beam="1">  1        2 0.99746294E+00 0.14956188E+02</pdfrwt>
<pdfrwt beam="2">  1       -2 0.98843805E+00 0.14956188E+02</pdfrwt>
<totfact> 0.75459954E-14</totfact>
</mgrwt>
</event>
<event>
 4    1 -0.5010510E-019  0.1494652E+02  0.7818608E-02  0.1869705E+00
         -2   -1    0    0    0  501 -0.00000000000E+00  0.00000000000E+00  0.12017738199E+03  0.12017738201E+03  0.25500000000E-02 0. -1.
          2   -1    0    0  501    0  0.00000000000E+00 -0.00000000000E+00 -0.46472308378E+00  0.46473007983E+00  0.25500000000E-02 0.  1.
         31    1    1    2    0    0  0.32295072395E+00  0.51915674775E+00  0.60905021914E+02  0.61361669153E+02  0.74470750000E+01 0. -1.
        -31    1    1    2    0    0 -0.32295072395E+00 -0.51915674775E+00  0.58807636988E+02  0.59280442939E+02  0.74470750000E+01 0. -1.
<mgrwt>
<rscale>  0 0.14946522E+02</rscale>
<asrwt>0</asrwt>
<pdfrwt beam="2">  1        2 0.98707125E+00 0.14946522E+02</pdfrwt>
<pdfrwt beam="1">  1       -2 0.99755339E+00 0.14946522E+02</pdfrwt>
<totfact>-0.17572952E-13</totfact>
</mgrwt>
</event>
<event>
 4    1 -0.5010510E-019  0.1497459E+02  0.7818608E-02  0.1868845E+00
         -2   -1    0    0    0  501 -0.00000000000E+00  0.00000000000E+00  0.12017286636E+03  0.12017286638E+03  0.25500000000E-02 0. -1.
          2   -1    0    0  501    0  0.00000000000E+00 -0.00000000000E+00 -0.46648741142E+00  0.46649438101E+00  0.25500000000E-02 0.  1.
         31    1    1    2    0    0  0.59486571262E+00 -0.56551749285E-01  0.55877257003E+02  0.56374496358E+02  0.74470750000E+01 0.  1.
        -31    1    1    2    0    0 -0.59486571262E+00  0.56551749285E-01  0.63829121941E+02  0.64264864406E+02  0.74470750000E+01 0. -1.
<mgrwt>
<rscale>  0 0.14974585E+02</rscale>
<asrwt>0</asrwt>
<pdfrwt beam="2">  1        2 0.99080399E+00 0.14974585E+02</pdfrwt>
<pdfrwt beam="1">  1       -2 0.99753064E+00 0.14974585E+02</pdfrwt>
<totfact>-0.11625275E-13</totfact>
</mgrwt>
</event>
<event>
 4    1 -0.5010510E-019  0.1495563E+02  0.7818608E-02  0.1869425E+00
         -2   -1    0    0    0  501 -0.00000000000E+00  0.00000000000E+00  0.11992444743E+03  0.11992444745E+03  0.25500000000E-02 0.  1.
          2   -1    0    0  501    0  0.00000000000E+00 -0.00000000000E+00 -0.46627103228E+00  0.46627800510E+00  0.25500000000E-02 0. -1.
         31    1    1    2    0    0  0.27420860852E+00  0.20130641123E+00  0.64444111577E+02  0.64873863440E+02  0.74470750000E+01 0.  1.
        -31    1    1    2    0    0 -0.27420860852E+00 -0.20130641123E+00  0.55014064818E+02  0.55516862019E+02  0.74470750000E+01 0. -1.
<mgrwt>
<rscale>  0 0.14955630E+02</rscale>
<asrwt>0</asrwt>
<pdfrwt beam="2">  1        2 0.99033826E+00 0.14955630E+02</pdfrwt>
<pdfrwt beam="1">  1       -2 0.99547475E+00 0.14955630E+02</pdfrwt>
<totfact>-0.16969472E-13</totfact>
</mgrwt>
</event>
<event>
 4    1 -0.5010510E-019  0.1497378E+02  0.7818608E-02  0.1868870E+00
         -2   -1    0    0    0  501 -0.00000000000E+00  0.00000000000E+00  0.11983385599E+03  0.11983385602E+03  0.25500000000E-02 0. -1.
          2   -1    0    0  501    0  0.00000000000E+00 -0.00000000000E+00 -0.46775680547E+00  0.46776375615E+00  0.25500000000E-02 0.  1.
         31    1    1    2    0    0  0.35052788359E+00 -0.89160925166E-01  0.54211704602E+02  0.54722012585E+02  0.74470750000E+01 0.  1.
        -31    1    1    2    0    0 -0.35052788359E+00  0.89160925166E-01  0.65154394582E+02  0.65579607188E+02  0.74470750000E+01 0. -1.
<mgrwt>
<rscale>  0 0.14973780E+02</rscale>
<asrwt>0</asrwt>
<pdfrwt beam="2">  1        2 0.99347875E+00 0.14973780E+02</pdfrwt>
<pdfrwt beam="1">  1       -2 0.99473796E+00 0.14973780E+02</pdfrwt>
<totfact>-0.13634636E-13</totfact>
</mgrwt>
</event>
<event>
 4    1 -0.5010510E-019  0.1496664E+02  0.7818608E-02  0.1869088E+00
         -2   -1    0    0    0  501 -0.00000000000E+00  0.00000000000E+00  0.12015112479E+03  0.12015112481E+03  0.25500000000E-02 0.  1.
          2   -1    0    0  501    0  0.00000000000E+00 -0.00000000000E+00 -0.46607683257E+00  0.46608380829E+00  0.25500000000E-02 0. -1.
         31    1    1    2    0    0 -0.18822316038E+00 -0.10004619356E+00  0.65516674858E+02  0.65938903901E+02  0.74470750000E+01 0.  1.
        -31    1    1    2    0    0  0.18822316038E+00  0.10004619356E+00  0.54168373096E+02  0.54678304721E+02  0.74470750000E+01 0. -1.
<mgrwt>
<rscale>  0 0.14966640E+02</rscale>
<asrwt>0</asrwt>
<pdfrwt beam="2">  1        2 0.98993463E+00 0.14966640E+02</pdfrwt>
<pdfrwt beam="1">  1       -2 0.99734747E+00 0.14966640E+02</pdfrwt>
<totfact>-0.13239613E-13</totfact>
</mgrwt>
</event>
<event>
 4    1 -0.5010510E-019  0.1495508E+02  0.7818608E-02  0.1869442E+00
         -2   -1    0    0    0  501 -0.00000000000E+00  0.00000000000E+00  0.11977175358E+03  0.11977175361E+03  0.25500000000E-02 0.  1.
          2   -1    0    0  501    0  0.00000000000E+00 -0.00000000000E+00 -0.46683140625E+00  0.46683837070E+00  0.25500000000E-02 0. -1.
         31    1    1    2    0    0 -0.44595408412E+00  0.46933155057E-01  0.55603369436E+02  0.56101646111E+02  0.74470750000E+01 0. -1.
        -31    1    1    2    0    0  0.44595408412E+00 -0.46933155057E-01  0.63701552741E+02  0.64136945869E+02  0.74470750000E+01 0.  1.
<mgrwt>
<rscale>  0 0.14955084E+02</rscale>
<asrwt>0</asrwt>
<pdfrwt beam="2">  1        2 0.99151894E+00 0.14955084E+02</pdfrwt>
<pdfrwt beam="1">  1       -2 0.99421681E+00 0.14955084E+02</pdfrwt>
<totfact>-0.15541492E-13</totfact>
</mgrwt>
</event>
<event>
 4    1 -0.5010510E-019  0.1495850E+02  0.7818608E-02  0.1869337E+00
         -2   -1    0    0    0  501 -0.00000000000E+00  0.00000000000E+00  0.11930063423E+03  0.11930063425E+03  0.25500000000E-02 0. -1.
          2   -1    0    0  501    0  0.00000000000E+00 -0.00000000000E+00 -0.46888916517E+00  0.46889609906E+00  0.25500000000E-02 0.  1.
         31    1    1    2    0    0  0.66917114338E+00  0.14306134442E+00  0.60293302025E+02  0.60755324472E+02  0.74470750000E+01 0.  1.
        -31    1    1    2    0    0 -0.66917114338E+00 -0.14306134442E+00  0.58538443037E+02  0.59014205882E+02  0.74470750000E+01 0. -1.
<mgrwt>
<rscale>  0 0.14958501E+02</rscale>
<asrwt>0</asrwt>
<pdfrwt beam="2">  1        2 0.99585704E+00 0.14958501E+02</pdfrwt>
<pdfrwt beam="1">  1       -2 0.99033828E+00 0.14958501E+02</pdfrwt>
<totfact>-0.91157229E-15</totfact>
</mgrwt>
</event>
<event>
 4    1 -0.5010510E-019  0.1490794E+02  0.7818608E-02  0.1870891E+00
          2   -1    0    0  501    0  0.00000000000E+00  0.00000000000E+00  0.11849093301E+03  0.11849093304E+03  0.25500000000E-02 0.  1.
         -2   -1    0    0    0  501 -0.00000000000E+00 -0.00000000000E+00 -0.46890716205E+00  0.46891409567E+00  0.25500000000E-02 0. -1.
         31    1    1    2    0    0 -0.63104508112E-01 -0.45291579260E-01  0.61492429293E+02  0.61941777662E+02  0.74470750000E+01 0.  1.
        -31    1    1    2    0    0  0.63104508112E-01  0.45291579260E-01  0.56529596559E+02  0.57018069475E+02  0.74470750000E+01 0. -1.
<mgrwt>
<rscale>  0 0.14907939E+02</rscale>
<asrwt>0</asrwt>
<pdfrwt beam="1">  1        2 0.98364325E+00 0.14907939E+02</pdfrwt>
<pdfrwt beam="2">  1       -2 0.99586847E+00 0.14907939E+02</pdfrwt>
<totfact>-0.41319877E-13</totfact>
</mgrwt>
</event>
<event>
 4    1  0.5010510E-019  0.1491993E+02  0.7818608E-02  0.1870522E+00
         -2   -1    0    0    0  501 -0.00000000000E+00  0.00000000000E+00  0.11911095421E+03  0.11911095423E+03  0.25500000000E-02 0.  1.
          2   -1    0    0  501    0  0.00000000000E+00 -0.00000000000E+00 -0.46721726720E+00  0.46722422591E+00  0.25500000000E-02 0. -1.
         31    1    1    2    0    0  0.20107414235E-01  0.26121218718E+00  0.56504741315E+02  0.56993976465E+02  0.74470750000E+01 0. -1.
        -31    1    1    2    0    0 -0.20107414235E-01 -0.26121218718E+00  0.62138995625E+02  0.62584201996E+02  0.74470750000E+01 0.  1.
<mgrwt>
<rscale>  0 0.14919935E+02</rscale>
<asrwt>0</asrwt>
<pdfrwt beam="2">  1        2 0.99231389E+00 0.14919935E+02</pdfrwt>
<pdfrwt beam="1">  1       -2 0.98875604E+00 0.14919935E+02</pdfrwt>
<totfact> 0.11197652E-13</totfact>
</mgrwt>
</event>
<event>
 4    1  0.5010510E-019  0.1494027E+02  0.7818608E-02  0.1869897E+00
          2   -1    0    0  501    0  0.00000000000E+00  0.00000000000E+00  0.12027330032E+03  0.12027330034E+03  0.25500000000E-02 0.  1.
         -2   -1    0    0    0  501 -0.00000000000E+00 -0.00000000000E+00 -0.46396436504E+00  0.46397137253E+00  0.25500000000E-02 0. -1.
         31    1    1    2    0    0  0.48313475960E+00 -0.33007764337E+00  0.60233288482E+02  0.60694730726E+02  0.74470750000E+01 0. -1.
        -31    1    1    2    0    0 -0.48313475960E+00  0.33007764337E+00  0.59576047468E+02  0.60042540989E+02  0.74470750000E+01 0. -1.
<mgrwt>
<rscale>  0 0.14940274E+02</rscale>
<asrwt>0</asrwt>
<pdfrwt beam="1">  1        2 0.99834024E+00 0.14940274E+02</pdfrwt>
<pdfrwt beam="2">  1       -2 0.98546898E+00 0.14940274E+02</pdfrwt>
<totfact> 0.19997298E-13</totfact>
</mgrwt>
</event>
<event>
 4    1  0.5010510E-019  0.1491310E+02  0.7818608E-02  0.1870732E+00
         -2   -1    0    0    0  501 -0.00000000000E+00  0.00000000000E+00  0.11912936649E+03  0.11912936652E+03  0.25500000000E-02 0.  1.
          2   -1    0    0  501    0  0.00000000000E+00 -0.00000000000E+00 -0.46671691052E+00  0.46672387668E+00  0.25500000000E-02 0. -1.
         31    1    1    2    0    0 -0.32036164479E+00 -0.19406701202E+00  0.59570359544E+02  0.60035214298E+02  0.74470750000E+01 0. -1.
        -31    1    1    2    0    0  0.32036164479E+00  0.19406701202E+00  0.59092290036E+02  0.59560876096E+02  0.74470750000E+01 0. -1.
<mgrwt>
<rscale>  0 0.14913096E+02</rscale>
<asrwt>0</asrwt>
<pdfrwt beam="2">  1        2 0.99125596E+00 0.14913096E+02</pdfrwt>
<pdfrwt beam="1">  1       -2 0.98890415E+00 0.14913096E+02</pdfrwt>
<totfact> 0.10652000E-13</totfact>
</mgrwt>
</event>
<event>
 4    1 -0.5010510E-019  0.1490429E+02  0.7818608E-02  0.1871003E+00
          2   -1    0    0  501    0  0.00000000000E+00  0.00000000000E+00  0.11808792781E+03  0.11808792784E+03  0.25500000000E-02 0.  1.
         -2   -1    0    0    0  501 -0.00000000000E+00 -0.00000000000E+00 -0.47027698171E+00  0.47028389514E+00  0.25500000000E-02 0. -1.
         31    1    1    2    0    0 -0.27072765002E+00 -0.32317629179E-01  0.58535369235E+02  0.59007819104E+02  0.74470750000E+01 0.  1.
        -31    1    1    2    0    0  0.27072765002E+00  0.32317629179E-01  0.59082281592E+02  0.59550392628E+02  0.74470750000E+01 0. -1.
<mgrwt>
<rscale>  0 0.14904287E+02</rscale>
<asrwt>0</asrwt>
<pdfrwt beam="1">  1        2 0.98032225E+00 0.14904287E+02</pdfrwt>
<pdfrwt beam="2">  1       -2 0.99875268E+00 0.14904287E+02</pdfrwt>
<totfact>-0.30142729E-13</totfact>
</mgrwt>
</event>
<event>
 4    1  0.5010510E-019  0.1493232E+02  0.7818608E-02  0.1870141E+00
         -2   -1    0    0    0  501 -0.00000000000E+00  0.00000000000E+00  0.11896970559E+03  0.11896970562E+03  0.25500000000E-02 0. -1.
          2   -1    0    0  501    0  0.00000000000E+00 -0.00000000000E+00 -0.46854902546E+00  0.46855596438E+00  0.25500000000E-02 0.  1.
         31    1    1    2    0    0  0.10919818228E+00  0.65660276094E-01  0.63394414621E+02  0.63830454853E+02  0.74470750000E+01 0. -1.
        -31    1    1    2    0    0 -0.10919818228E+00 -0.65660276094E-01  0.55106741942E+02  0.55607806727E+02  0.74470750000E+01 0.  1.
<mgrwt>
<rscale>  0 0.14932321E+02</rscale>
<asrwt>0</asrwt>
<pdfrwt beam="2">  1        2 0.99512664E+00 0.14932321E+02</pdfrwt>
<pdfrwt beam="1">  1       -2 0.98759911E+00 0.14932321E+02</pdfrwt>
<totfact> 0.18476898E-13</totfact>
</mgrwt>
</event>
<event>
 4    1 -0.5010510E-019  0.1493918E+02  0.7818608E-02  0.1869930E+00
         -2   -1    0    0    0  501 -0.00000000000E+00  0.00000000000E+00  0.12000935896E+03  0.12000935898E+03  0.25500000000E-02 0.  1.
          2   -1    0    0  501    0  0.00000000000E+00 -0.00000000000E+00 -0.46491696819E+00  0.46492396133E+00  0.25500000000E-02 0. -1.
         31    1    1    2    0    0 -0.17166823931E+00 -0.50094021788E+00  0.61671586307E+02  0.62121847161E+02  0.74470750000E+01 0. -1.
        -31    1    1    2    0    0  0.17166823931E+00  0.50094021788E+00  0.57872855681E+02  0.58352435783E+02  0.74470750000E+01 0.  1.
<mgrwt>
<rscale>  0 0.14939185E+02</rscale>
<asrwt>0</asrwt>
<pdfrwt beam="2">  1        2 0.98747614E+00 0.14939185E+02</pdfrwt>
<pdfrwt beam="1">  1       -2 0.99616566E+00 0.14939185E+02</pdfrwt>
<totfact>-0.22019372E-13</totfact>
</mgrwt>
</event>
<event>
 4    1 -0.5010510E-019  0.1492860E+02  0.7818608E-02  0.1870255E+00
         -2   -1    0    0    0  501 -0.00000000000E+00  0.00000000000E+00  0.11961956845E+03  0.11961956848E+03  0.25500000000E-02 0. -1.
          2   -1    0    0  501    0  0.00000000000E+00 -0.00000000000E+00 -0.46577131512E+00  0.46577829542E+00  0.25500000000E-02 0.  1.
         31    1    1    2    0    0  0.17056227694E+00  0.28539570772E+00  0.62653824977E+02  0.63095730858E+02  0.74470750000E+01 0. -1.
        -31    1    1    2    0    0 -0.17056227694E+00 -0.28539570772E+00  0.56499972161E+02  0.56989615918E+02  0.74470750000E+01 0.  1.
<mgrwt>
<rscale>  0 0.14928601E+02</rscale>
<asrwt>0</asrwt>
<pdfrwt beam="2">  1        2 0.98927126E+00 0.14928601E+02</pdfrwt>
<pdfrwt beam="1">  1       -2 0.99294967E+00 0.14928601E+02</pdfrwt>
<totfact>-0.16528390E-13</totfact>
</mgrwt>
</event>
<event>
 4    1  0.5010510E-019  0.1492000E+02  0.7818608E-02  0.1870519E+00
         -2   -1    0    0    0  501 -0.00000000000E+00  0.00000000000E+00  0.11871433164E+03  0.11871433166E+03  0.25500000000E-02 0. -1.
          2   -1    0    0  501    0  0.00000000000E+00 -0.00000000000E+00 -0.46878260140E+00  0.46878953686E+00  0.25500000000E-02 0.  1.
         31    1    1    2    0    0 -0.15777864416E+00  0.13948473817E+00  0.56046022420E+02  0.56539012242E+02  0.74470750000E+01 0.  1.
        -31    1    1    2    0    0  0.15777864416E+00 -0.13948473817E+00  0.62199526616E+02  0.62644108960E+02  0.74470750000E+01 0.  1.
<mgrwt>
<rscale>  0 0.14920004E+02</rscale>
<asrwt>0</asrwt>
<pdfrwt beam="2">  1        2 0.99561235E+00 0.14920004E+02</pdfrwt>
<pdfrwt beam="1">  1       -2 0.98548943E+00 0.14920004E+02</pdfrwt>
<totfact> 0.39155819E-13</totfact>
</mgrwt>
</event>
<event>
 4    1 -0.5010510E-019  0.1496986E+02  0.7818608E-02  0.1868990E+00
          2   -1    0    0  501    0  0.00000000000E+00  0.00000000000E+00  0.11974194184E+03  0.11974194187E+03  0.25500000000E-02 0.  1.
         -2   -1    0    0    0  501 -0.00000000000E+00 -0.00000000000E+00 -0.46787069219E+00  0.46787764117E+00  0.25500000000E-02 0. -1.
         31    1    1    2    0    0 -0.15139382557E+00  0.67810256960E+00  0.57330624112E+02  0.57816452073E+02  0.74470750000E+01 0. -1.
        -31    1    1    2    0    0  0.15139382557E+00 -0.67810256960E+00  0.61943447038E+02  0.62393367438E+02  0.74470750000E+01 0.  1.
<mgrwt>
<rscale>  0 0.14969858E+02</rscale>
<asrwt>0</asrwt>
<pdfrwt beam="1">  1        2 0.99397889E+00 0.14969858E+02</pdfrwt>
<pdfrwt beam="2">  1       -2 0.99371673E+00 0.14969858E+02</pdfrwt>
<totfact>-0.12513603E-13</totfact>
</mgrwt>
</event>
<event>
 4    1  0.5010510E-019  0.1491620E+02  0.7818608E-02  0.1870637E+00
         -2   -1    0    0    0  501 -0.00000000000E+00  0.00000000000E+00  0.11856634748E+03  0.11856634751E+03  0.25500000000E-02 0. -1.
          2   -1    0    0  501    0  0.00000000000E+00 -0.00000000000E+00 -0.46912829612E+00  0.46913522648E+00  0.25500000000E-02 0.  1.
         31    1    1    2    0    0  0.27660788336E+00 -0.29461362351E+00  0.58795304001E+02  0.59266432386E+02  0.74470750000E+01 0.  1.
        -31    1    1    2    0    0 -0.27660788336E+00  0.29461362351E+00  0.59301915184E+02  0.59769050349E+02  0.74470750000E+01 0.  1.
<mgrwt>
<rscale>  0 0.14916198E+02</rscale>
<asrwt>0</asrwt>
<pdfrwt beam="2">  1        2 0.99633875E+00 0.14916198E+02</pdfrwt>
<pdfrwt beam="1">  1       -2 0.98426866E+00 0.14916198E+02</pdfrwt>
<totfact> 0.49511438E-13</totfact>
</mgrwt>
</event>
<event>
 4    1  0.5010510E-019  0.1493437E+02  0.7818608E-02  0.1870078E+00
         -2   -1    0    0    0  501 -0.00000000000E+00  0.00000000000E+00  0.11875934367E+03  0.11875934370E+03  0.25500000000E-02 0. -1.
          2   -1    0    0  501    0  0.00000000000E+00 -0.00000000000E+00 -0.46950810038E+00  0.46951502513E+00  0.25500000000E-02 0.  1.
         31    1    1    2    0    0  0.27717020682E+00  0.44235874167E+00  0.60467815053E+02  0.60926907749E+02  0.74470750000E+01 0. -1.
        -31    1    1    2    0    0 -0.27717020682E+00 -0.44235874167E+00  0.57822020522E+02  0.58301950978E+02  0.74470750000E+01 0.  1.
<mgrwt>
<rscale>  0 0.14934375E+02</rscale>
<asrwt>0</asrwt>
<pdfrwt beam="2">  1        2 0.99714858E+00 0.14934375E+02</pdfrwt>
<pdfrwt beam="1">  1       -2 0.98586762E+00 0.14934375E+02</pdfrwt>
<totfact> 0.26571096E-13</totfact>
</mgrwt>
</event>
<event>
 4    1 -0.5010510E-019  0.1491062E+02  0.7818608E-02  0.1870808E+00
          2   -1    0    0  501    0  0.00000000000E+00  0.00000000000E+00  0.11851406753E+03  0.11851406756E+03  0.25500000000E-02 0. -1.
         -2   -1    0    0    0  501 -0.00000000000E+00 -0.00000000000E+00 -0.46898433066E+00  0.46899126314E+00  0.25500000000E-02 0.  1.
         31    1    1    2    0    0  0.42152824637E-01 -0.34695060842E+00  0.58830853089E+02  0.59301352032E+02  0.74470750000E+01 0. -1.
        -31    1    1    2    0    0 -0.42152824637E-01  0.34695060842E+00  0.59214230111E+02  0.59681706789E+02  0.74470750000E+01 0. -1.
<mgrwt>
<rscale>  0 0.14910621E+02</rscale>
<asrwt>0</asrwt>
<pdfrwt beam="1">  1        2 0.98383518E+00 0.14910621E+02</pdfrwt>
<pdfrwt beam="2">  1       -2 0.99603248E+00 0.14910621E+02</pdfrwt>
<totfact>-0.39342645E-13</totfact>
</mgrwt>
</event>
<event>
 4    1 -0.5010510E-019  0.1492438E+02  0.7818608E-02  0.1870385E+00
         -2   -1    0    0    0  501 -0.00000000000E+00  0.00000000000E+00  0.11944333679E+03  0.11944333681E+03  0.25500000000E-02 0.  1.
          2   -1    0    0  501    0  0.00000000000E+00 -0.00000000000E+00 -0.46619455528E+00  0.46620152924E+00  0.25500000000E-02 0. -1.
         31    1    1    2    0    0  0.22711908345E+00  0.71737345800E-01  0.62787578533E+02  0.63228124070E+02  0.74470750000E+01 0.  1.
        -31    1    1    2    0    0 -0.22711908345E+00 -0.71737345800E-01  0.56189563698E+02  0.56681414273E+02  0.74470750000E+01 0. -1.
<mgrwt>
<rscale>  0 0.14924376E+02</rscale>
<asrwt>0</asrwt>
<pdfrwt beam="2">  1        2 0.99016102E+00 0.14924376E+02</pdfrwt>
<pdfrwt beam="1">  1       -2 0.99149596E+00 0.14924376E+02</pdfrwt>
<totfact>-0.91040588E-14</totfact>
</mgrwt>
</event>
<event>
 4    1 -0.5010510E-019  0.1492846E+02  0.7818608E-02  0.1870259E+00
         -2   -1    0    0    0  501 -0.00000000000E+00  0.00000000000E+00  0.11966614108E+03  0.11966614111E+03  0.25500000000E-02 0.  1.
          2   -1    0    0  501    0  0.00000000000E+00 -0.00000000000E+00 -0.46558127089E+00  0.46558825404E+00  0.25500000000E-02 0. -1.
         31    1    1    2    0    0  0.18111315411E+00  0.47223090869E+00  0.59582165153E+02  0.60047890341E+02  0.74470750000E+01 0.  1.
        -31    1    1    2    0    0 -0.18111315411E+00 -0.47223090869E+00  0.59618394659E+02  0.60083839024E+02  0.74470750000E+01 0.  1.
<mgrwt>
<rscale>  0 0.14928461E+02</rscale>
<asrwt>0</asrwt>
<pdfrwt beam="2">  1        2 0.98887068E+00 0.14928461E+02</pdfrwt>
<pdfrwt beam="1">  1       -2 0.99333319E+00 0.14928461E+02</pdfrwt>
<totfact>-0.18387781E-13</totfact>
</mgrwt>
</event>
<event>
 4    1 -0.5010510E-019  0.1497283E+02  0.7818608E-02  0.1868899E+00
         -2   -1    0    0    0  501 -0.00000000000E+00  0.00000000000E+00  0.11968582605E+03  0.11968582608E+03  0.25500000000E-02 0.  1.
          2   -1    0    0  501    0  0.00000000000E+00 -0.00000000000E+00 -0.46827617031E+00  0.46828311328E+00  0.25500000000E-02 0. -1.
         31    1    1    2    0    0  0.19155075315E+00  0.57811278299E+00  0.63343604056E+02  0.63782772023E+02  0.74470750000E+01 0.  1.
        -31    1    1    2    0    0 -0.19155075315E+00 -0.57811278299E+00  0.55873945825E+02  0.56371337168E+02  0.74470750000E+01 0. -1.
<mgrwt>
<rscale>  0 0.14972834E+02</rscale>
<asrwt>0</asrwt>
<pdfrwt beam="2">  1        2 0.99457274E+00 0.14972834E+02</pdfrwt>
<pdfrwt beam="1">  1       -2 0.99351824E+00 0.14972834E+02</pdfrwt>
<totfact>-0.11646440E-13</totfact>
</mgrwt>
</event>
<event>
 4    1  0.5010510E-019  0.1490244E+02  0.7818608E-02  0.1871060E+00
         -2   -1    0    0    0  501 -0.00000000000E+00  0.00000000000E+00  0.11826651990E+03  0.11826651993E+03  0.25500000000E-02 0. -1.
          2   -1    0    0  501    0  0.00000000000E+00 -0.00000000000E+00 -0.46945050379E+00  0.46945742939E+00  0.25500000000E-02 0.  1.
         31    1    1    2    0    0 -0.32967854744E-01  0.20035468417E+00  0.60040293693E+02  0.60500719183E+02  0.74470750000E+01 0. -1.
        -31    1    1    2    0    0  0.32967854744E-01 -0.20035468417E+00  0.57756775705E+02  0.58235258176E+02  0.74470750000E+01 0. -1.
<mgrwt>
<rscale>  0 0.14902441E+02</rscale>
<asrwt>0</asrwt>
<pdfrwt beam="2">  1        2 0.99701038E+00 0.14902441E+02</pdfrwt>
<pdfrwt beam="1">  1       -2 0.98179214E+00 0.14902441E+02</pdfrwt>
<totfact> 0.75305815E-13</totfact>
</mgrwt>
</event>
<event>
 4    1 -0.5010510E-019  0.1492832E+02  0.7818608E-02  0.1870264E+00
          2   -1    0    0  501    0  0.00000000000E+00  0.00000000000E+00  0.11868872106E+03  0.11868872109E+03  0.25500000000E-02 0. -1.
         -2   -1    0    0    0  501 -0.00000000000E+00 -0.00000000000E+00 -0.46940665568E+00  0.46941358192E+00  0.25500000000E-02 0.  1.
         31    1    1    2    0    0  0.66336923737E-01  0.14285962392E+00  0.62937319359E+02  0.63376572199E+02  0.74470750000E+01 0. -1.
        -31    1    1    2    0    0 -0.66336923737E-01 -0.14285962392E+00  0.55281995049E+02  0.55781562474E+02  0.74470750000E+01 0.  1.
<mgrwt>
<rscale>  0 0.14928321E+02</rscale>
<asrwt>0</asrwt>
<pdfrwt beam="1">  1        2 0.98528283E+00 0.14928321E+02</pdfrwt>
<pdfrwt beam="2">  1       -2 0.99693165E+00 0.14928321E+02</pdfrwt>
<totfact>-0.26953418E-13</totfact>
</mgrwt>
</event>
<event>
 4    1 -0.5010510E-019  0.1498353E+02  0.7818608E-02  0.1868572E+00
          2   -1    0    0  501    0  0.00000000000E+00  0.00000000000E+00  0.11972475393E+03  0.11972475396E+03  0.25500000000E-02 0.  1.
         -2   -1    0    0    0  501 -0.00000000000E+00 -0.00000000000E+00 -0.46879297037E+00  0.46879990568E+00  0.25500000000E-02 0. -1.
         31    1    1    2    0    0 -0.75153145197E+00  0.98276817291E-02  0.62198926904E+02  0.62647668194E+02  0.74470750000E+01 0.  1.
        -31    1    1    2    0    0  0.75153145197E+00 -0.98276817291E-02  0.57057034056E+02  0.57545885669E+02  0.74470750000E+01 0. -1.
<mgrwt>
<rscale>  0 0.14983530E+02</rscale>
<asrwt>0</asrwt>
<pdfrwt beam="1">  1        2 0.99384440E+00 0.14983530E+02</pdfrwt>
<pdfrwt beam="2">  1       -2 0.99566734E+00 0.14983530E+02</pdfrwt>
<totfact>-0.12797209E-13</totfact>
</mgrwt>
</event>
<event>
 4    1 -0.5010510E-019  0.1497333E+02  0.7818608E-02  0.1868883E+00
         -2   -1    0    0    0  501 -0.00000000000E+00  0.00000000000E+00  0.11951873565E+03  0.11951873568E+03  0.25500000000E-02 0.  1.
          2   -1    0    0  501    0  0.00000000000E+00 -0.00000000000E+00 -0.46896201069E+00  0.46896894350E+00  0.25500000000E-02 0. -1.
         31    1    1    2    0    0 -0.67472669730E+00 -0.29516954283E-01  0.62470415219E+02  0.62916355831E+02  0.74470750000E+01 0.  1.
        -31    1    1    2    0    0  0.67472669730E+00  0.29516954283E-01  0.56579358424E+02  0.57071348793E+02  0.74470750000E+01 0. -1.
<mgrwt>
<rscale>  0 0.14973332E+02</rscale>
<asrwt>0</asrwt>
<pdfrwt beam="2">  1        2 0.99601826E+00 0.14973332E+02</pdfrwt>
<pdfrwt beam="1">  1       -2 0.99214229E+00 0.14973332E+02</pdfrwt>
<totfact>-0.73256855E-14</totfact>
</mgrwt>
</event>
<event>
 4    1 -0.5010510E-019  0.1494988E+02  0.7818608E-02  0.1869602E+00
          2   -1    0    0  501    0  0.00000000000E+00  0.00000000000E+00  0.11908949722E+03  0.11908949725E+03  0.25500000000E-02 0.  1.
         -2   -1    0    0    0  501 -0.00000000000E+00 -0.00000000000E+00 -0.46917910407E+00  0.46918603368E+00  0.25500000000E-02 0. -1.
         31    1    1    2    0    0 -0.58226199673E+00  0.23893137515E+00  0.58188362612E+02  0.58666349697E+02  0.74470750000E+01 0. -1.
        -31    1    1    2    0    0  0.58226199673E+00 -0.23893137515E+00  0.60431955505E+02  0.60892333585E+02  0.74470750000E+01 0.  1.
<mgrwt>
<rscale>  0 0.14949879E+02</rscale>
<asrwt>0</asrwt>
<pdfrwt beam="1">  1        2 0.98859484E+00 0.14949879E+02</pdfrwt>
<pdfrwt beam="2">  1       -2 0.99646349E+00 0.14949879E+02</pdfrwt>
<totfact>-0.18334468E-13</totfact>
</mgrwt>
</event>
<event>
 4    1 -0.5010510E-019  0.1490460E+02  0.7818608E-02  0.1870994E+00
         -2   -1    0    0    0  501 -0.00000000000E+00  0.00000000000E+00  0.11994006264E+03  0.11994006267E+03  0.25500000000E-02 0.  1.
          2   -1    0    0  501    0  0.00000000000E+00 -0.00000000000E+00 -0.46303412095E+00  0.46304114252E+00  0.25500000000E-02 0. -1.
         31    1    1    2    0    0  0.93515650559E-01 -0.10956018860E+00  0.57808316658E+02  0.58286200335E+02  0.74470750000E+01 0. -1.
        -31    1    1    2    0    0 -0.93515650559E-01  0.10956018860E+00  0.61668711860E+02  0.62116903474E+02  0.74470750000E+01 0. -1.
<mgrwt>
<rscale>  0 0.14904599E+02</rscale>
<asrwt>0</asrwt>
<pdfrwt beam="2">  1        2 0.98349025E+00 0.14904599E+02</pdfrwt>
<pdfrwt beam="1">  1       -2 0.99557710E+00 0.14904599E+02</pdfrwt>
<totfact>-0.43426869E-13</totfact>
</mgrwt>
</event>
<event>
 4    1  0.5010510E-019  0.1491580E+02  0.7818608E-02  0.1870649E+00
         -2   -1    0    0    0  501 -0.00000000000E+00  0.00000000000E+00  0.11848526538E+03  0.11848526540E+03  0.25500000000E-02 0. -1.
          2   -1    0    0  501    0  0.00000000000E+00 -0.00000000000E+00 -0.46942449080E+00  0.46943141678E+00  0.25500000000E-02 0.  1.
         31    1    1    2    0    0  0.40086740489E+00  0.23394603517E-01  0.59099163879E+02  0.59567871703E+02  0.74470750000E+01 0.  1.
        -31    1    1    2    0    0 -0.40086740489E+00 -0.23394603517E-01  0.58916677007E+02  0.59386825118E+02  0.74470750000E+01 0.  1.
<mgrwt>
<rscale>  0 0.14915804E+02</rscale>
<asrwt>0</asrwt>
<pdfrwt beam="2">  1        2 0.99696263E+00 0.14915804E+02</pdfrwt>
<pdfrwt beam="1">  1       -2 0.98360066E+00 0.14915804E+02</pdfrwt>
<totfact> 0.51719299E-13</totfact>
</mgrwt>
</event>
<event>
 4    1  0.5010510E-019  0.1493076E+02  0.7818608E-02  0.1870189E+00
          2   -1    0    0  501    0  0.00000000000E+00  0.00000000000E+00  0.12004105683E+03  0.12004105686E+03  0.25500000000E-02 0. -1.
         -2   -1    0    0    0  501 -0.00000000000E+00 -0.00000000000E+00 -0.46427027652E+00  0.46427727939E+00  0.25500000000E-02 0.  1.
         31    1    1    2    0    0  0.43583427093E-02  0.27144114366E+00  0.63391442289E+02  0.63827952973E+02  0.74470750000E+01 0. -1.
        -31    1    1    2    0    0 -0.43583427093E-02 -0.27144114366E+00  0.56185344268E+02  0.56677381166E+02  0.74470750000E+01 0.  1.
<mgrwt>
<rscale>  0 0.14930763E+02</rscale>
<asrwt>0</asrwt>
<pdfrwt beam="1">  1        2 0.99642242E+00 0.14930763E+02</pdfrwt>
<pdfrwt beam="2">  1       -2 0.98610890E+00 0.14930763E+02</pdfrwt>
<totfact> 0.28440734E-13</totfact>
</mgrwt>
</event>
<event>
 4    1 -0.5010510E-019  0.1500241E+02  0.7818608E-02  0.1867995E+00
         -2   -1    0    0    0  501 -0.00000000000E+00  0.00000000000E+00  0.12027899358E+03  0.12027899361E+03  0.25500000000E-02 0. -1.
          2   -1    0    0  501    0  0.00000000000E+00 -0.00000000000E+00 -0.46780967178E+00  0.46781662167E+00  0.25500000000E-02 0.  1.
         31    1    1    2    0    0 -0.61074194743E+00 -0.65994696619E+00  0.60108559355E+02  0.60574799789E+02  0.74470750000E+01 0. -1.
        -31    1    1    2    0    0  0.61074194743E+00  0.65994696619E+00  0.59702624557E+02  0.60172010444E+02  0.74470750000E+01 0.  1.
<mgrwt>
<rscale>  0 0.15002413E+02</rscale>
<asrwt>0</asrwt>
<pdfrwt beam="2">  1        2 0.99360490E+00 0.15002413E+02</pdfrwt>
<pdfrwt beam="1">  1       -2 0.99841911E+00 0.15002413E+02</pdfrwt>
<totfact>-0.65868025E-14</totfact>
</mgrwt>
</event>
<event>
 4    1  0.5010510E-019  0.1493946E+02  0.7818608E-02  0.1869921E+00
         -2   -1    0    0    0  501 -0.00000000000E+00  0.00000000000E+00  0.11871502970E+03  0.11871502973E+03  0.25500000000E-02 0. -1.
          2   -1    0    0  501    0  0.00000000000E+00 -0.00000000000E+00 -0.47000337049E+00  0.47001028794E+00  0.25500000000E-02 0.  1.
         31    1    1    2    0    0  0.34459362317E+00  0.23749247445E+00  0.55903520847E+02  0.56398915917E+02  0.74470750000E+01 0.  1.
        -31    1    1    2    0    0 -0.34459362317E+00 -0.23749247445E+00  0.62341505484E+02  0.62786124100E+02  0.74470750000E+01 0.  1.
<mgrwt>
<rscale>  0 0.14939462E+02</rscale>
<asrwt>0</asrwt>
<pdfrwt beam="2">  1        2 0.99819482E+00 0.14939462E+02</pdfrwt>
<pdfrwt beam="1">  1       -2 0.98550530E+00 0.14939462E+02</pdfrwt>
<totfact> 0.21165663E-13</totfact>
</mgrwt>
</event>
<event>
 4    1 -0.5010510E-019  0.1497266E+02  0.7818608E-02  0.1868904E+00
          2   -1    0    0  501    0  0.00000000000E+00  0.00000000000E+00  0.11929709055E+03  0.11929709057E+03  0.25500000000E-02 0.  1.
         -2   -1    0    0    0  501 -0.00000000000E+00 -0.00000000000E+00 -0.46979118736E+00  0.46979810794E+00  0.25500000000E-02 0. -1.
         31    1    1    2    0    0 -0.75351752807E+00  0.13571368514E+00  0.59395849715E+02  0.59865784019E+02  0.74470750000E+01 0. -1.
        -31    1    1    2    0    0  0.75351752807E+00 -0.13571368514E+00  0.59431449644E+02  0.59901104662E+02  0.74470750000E+01 0.  1.
<mgrwt>
<rscale>  0 0.14972660E+02</rscale>
<asrwt>0</asrwt>
<pdfrwt beam="1">  1        2 0.99031643E+00 0.14972660E+02</pdfrwt>
<pdfrwt beam="2">  1       -2 0.99776515E+00 0.14972660E+02</pdfrwt>
<totfact>-0.11250272E-13</totfact>
</mgrwt>
</event>
<event>
 4    1 -0.5010510E-019  0.1497171E+02  0.7818608E-02  0.1868933E+00
         -2   -1    0    0    0  501 -0.00000000000E+00  0.00000000000E+00  0.12022587787E+03  0.12022587790E+03  0.25500000000E-02 0.  1.
          2   -1    0    0  501    0  0.00000000000E+00 -0.00000000000E+00 -0.46610241690E+00  0.46610939225E+00  0.25500000000E-02 0. -1.
         31    1    1    2    0    0  0.32554526438E+00  0.64382780716E+00  0.61830911401E+02  0.62281947824E+02  0.74470750000E+01 0.  1.
        -31    1    1    2    0    0 -0.32554526438E+00 -0.64382780716E+00  0.57928864052E+02  0.58410039465E+02  0.74470750000E+01 0.  1.
<mgrwt>
<rscale>  0 0.14971706E+02</rscale>
<asrwt>0</asrwt>
<pdfrwt beam="2">  1        2 0.98999113E+00 0.14971706E+02</pdfrwt>
<pdfrwt beam="1">  1       -2 0.99796579E+00 0.14971706E+02</pdfrwt>
<totfact>-0.10769283E-13</totfact>
</mgrwt>
</event>
<event>
 4    1  0.5010510E-019  0.1494091E+02  0.7818608E-02  0.1869877E+00
         -2   -1    0    0    0  501 -0.00000000000E+00  0.00000000000E+00  0.11880690418E+03  0.11880690421E+03  0.25500000000E-02 0. -1.
          2   -1    0    0  501    0  0.00000000000E+00 -0.00000000000E+00 -0.46973127939E+00  0.46973820085E+00  0.25500000000E-02 0.  1.
         31    1    1    2    0    0  0.30624321214E+00  0.49985459101E+00  0.59742487724E+02  0.60207702206E+02  0.74470750000E+01 0.  1.
        -31    1    1    2    0    0 -0.30624321214E+00 -0.49985459101E+00  0.58594685179E+02  0.59068940204E+02  0.74470750000E+01 0. -1.
<mgrwt>
<rscale>  0 0.14940915E+02</rscale>
<asrwt>0</asrwt>
<pdfrwt beam="2">  1        2 0.99762227E+00 0.14940915E+02</pdfrwt>
<pdfrwt beam="1">  1       -2 0.98626273E+00 0.14940915E+02</pdfrwt>
<totfact> 0.20410615E-13</totfact>
</mgrwt>
</event>
<event>
 4    1  0.5010510E-019  0.1490596E+02  0.7818608E-02  0.1870952E+00
          2   -1    0    0  501    0  0.00000000000E+00  0.00000000000E+00  0.12028692916E+03  0.12028692918E+03  0.25500000000E-02 0.  1.
         -2   -1    0    0    0  501 -0.00000000000E+00 -0.00000000000E+00 -0.46178318092E+00  0.46179022151E+00  0.25500000000E-02 0. -1.
         31    1    1    2    0    0 -0.74681348049E-01 -0.13558417625E+00  0.61962243107E+02  0.62408352464E+02  0.74470750000E+01 0.  1.
        -31    1    1    2    0    0  0.74681348049E-01  0.13558417625E+00  0.57862902869E+02  0.58340366941E+02  0.74470750000E+01 0. -1.
<mgrwt>
<rscale>  0 0.14905960E+02</rscale>
<asrwt>0</asrwt>
<pdfrwt beam="1">  1        2 0.99843490E+00 0.14905960E+02</pdfrwt>
<pdfrwt beam="2">  1       -2 0.98085432E+00 0.14905960E+02</pdfrwt>
<totfact> 0.54976475E-13</totfact>
</mgrwt>
</event>
<event>
 4    1  0.5010510E-019  0.1490386E+02  0.7818608E-02  0.1871016E+00
         -2   -1    0    0    0  501 -0.00000000000E+00  0.00000000000E+00  0.11861809137E+03  0.11861809139E+03  0.25500000000E-02 0. -1.
          2   -1    0    0  501    0  0.00000000000E+00 -0.00000000000E+00 -0.46814831771E+00  0.46815526258E+00  0.25500000000E-02 0.  1.
         31    1    1    2    0    0 -0.12451506503E+00 -0.18948449915E+00  0.60231237593E+02  0.60690298371E+02  0.74470750000E+01 0. -1.
        -31    1    1    2    0    0  0.12451506503E+00  0.18948449915E+00  0.57918705455E+02  0.58395948285E+02  0.74470750000E+01 0. -1.
<mgrwt>
<rscale>  0 0.14903862E+02</rscale>
<asrwt>0</asrwt>
<pdfrwt beam="2">  1        2 0.99426739E+00 0.14903862E+02</pdfrwt>
<pdfrwt beam="1">  1       -2 0.98468841E+00 0.14903862E+02</pdfrwt>
<totfact> 0.56587254E-13</totfact>
</mgrwt>
</event>
<event>
 4    1 -0.5010510E-019  0.1489638E+02  0.7818608E-02  0.1871247E+00
          2   -1    0    0  501    0  0.00000000000E+00  0.00000000000E+00  0.11797570281E+03  0.11797570283E+03  0.25500000000E-02 0.  1.
         -2   -1    0    0    0  501 -0.00000000000E+00 -0.00000000000E+00 -0.47022496025E+00  0.47023187444E+00  0.25500000000E-02 0. -1.
         31    1    1    2    0    0  0.71502456621E-01  0.88128378966E-01  0.59238095764E+02  0.59704470477E+02  0.74470750000E+01 0.  1.
        -31    1    1    2    0    0 -0.71502456621E-01 -0.88128378966E-01  0.58267382082E+02  0.58741464230E+02  0.74470750000E+01 0. -1.
<mgrwt>
<rscale>  0 0.14896380E+02</rscale>
<asrwt>0</asrwt>
<pdfrwt beam="1">  1        2 0.97939386E+00 0.14896380E+02</pdfrwt>
<pdfrwt beam="2">  1       -2 0.99863887E+00 0.14896380E+02</pdfrwt>
<totfact>-0.37901582E-13</totfact>
</mgrwt>
</event>
<event>
 4    1 -0.5010510E-019  0.1501924E+02  0.7818608E-02  0.1867482E+00
          2   -1    0    0  501    0  0.00000000000E+00  0.00000000000E+00  0.11996993893E+03  0.11996993896E+03  0.25500000000E-02 0. -1.
         -2   -1    0    0    0  501 -0.00000000000E+00 -0.00000000000E+00 -0.47006752221E+00  0.47007443872E+00  0.25500000000E-02 0.  1.
         31    1    1    2    0    0  0.52028066157E+00  0.66568970071E+00  0.55974766568E+02  0.56474306133E+02  0.74470750000E+01 0.  1.
        -31    1    1    2    0    0 -0.52028066157E+00 -0.66568970071E+00  0.63525104843E+02  0.63965707267E+02  0.74470750000E+01 0.  1.
<mgrwt>
<rscale>  0 0.15019240E+02</rscale>
<asrwt>0</asrwt>
<pdfrwt beam="1">  1        2 0.99588230E+00 0.15019240E+02</pdfrwt>
<pdfrwt beam="2">  1       -2 0.99837171E+00 0.15019240E+02</pdfrwt>
<totfact>-0.53819572E-14</totfact>
</mgrwt>
</event>
<event>
 4    1 -0.5010510E-019  0.1495726E+02  0.7818608E-02  0.1869376E+00
         -2   -1    0    0    0  501 -0.00000000000E+00  0.00000000000E+00  0.12006517902E+03  0.12006517905E+03  0.25500000000E-02 0.  1.
          2   -1    0    0  501    0  0.00000000000E+00 -0.00000000000E+00 -0.46582589350E+00  0.46583287299E+00  0.25500000000E-02 0. -1.
         31    1    1    2    0    0  0.58641701076E+00 -0.35634138977E+00  0.59880821619E+02  0.60346023796E+02  0.74470750000E+01 0. -1.
        -31    1    1    2    0    0 -0.58641701076E+00  0.35634138977E+00  0.59718531509E+02  0.60184988126E+02  0.74470750000E+01 0. -1.
<mgrwt>
<rscale>  0 0.14957258E+02</rscale>
<asrwt>0</asrwt>
<pdfrwt beam="2">  1        2 0.98940097E+00 0.14957258E+02</pdfrwt>
<pdfrwt beam="1">  1       -2 0.99663474E+00 0.14957258E+02</pdfrwt>
<totfact>-0.16299387E-13</totfact>
</mgrwt>
</event>
<event>
 4    1 -0.5010510E-019  0.1502423E+02  0.7818608E-02  0.1867330E+00
          2   -1    0    0  501    0  0.00000000000E+00  0.00000000000E+00  0.12024066240E+03  0.12024066243E+03  0.25500000000E-02 0. -1.
         -2   -1    0    0    0  501 -0.00000000000E+00 -0.00000000000E+00 -0.46932092679E+00  0.46932785430E+00  0.25500000000E-02 0.  1.
         31    1    1    2    0    0 -0.70132731819E+00 -0.46037980300E+00  0.64053814554E+02  0.64490727198E+02  0.74470750000E+01 0.  1.
        -31    1    1    2    0    0  0.70132731819E+00  0.46037980300E+00  0.55717526920E+02  0.56219263084E+02  0.74470750000E+01 0.  1.
<mgrwt>
<rscale>  0 0.15024231E+02</rscale>
<asrwt>0</asrwt>
<pdfrwt beam="1">  1        2 0.99811466E+00 0.15024231E+02</pdfrwt>
<pdfrwt beam="2">  1       -2 0.99680097E+00 0.15024231E+02</pdfrwt>
<totfact>-0.52170817E-14</totfact>
</mgrwt>
</event>
<event>
 4    1 -0.5010510E-019  0.1490575E+02  0.7818608E-02  0.1870958E+00
         -2   -1    0    0    0  501 -0.00000000000E+00  0.00000000000E+00  0.11997893102E+03  0.11997893105E+03  0.25500000000E-02 0. -1.
          2   -1    0    0  501    0  0.00000000000E+00 -0.00000000000E+00 -0.46295586233E+00  0.46296288508E+00  0.25500000000E-02 0.  1.
         31    1    1    2    0    0  0.38114977615E-01 -0.68320596978E-01  0.62048094646E+02  0.62493448422E+02  0.74470750000E+01 0. -1.
        -31    1    1    2    0    0 -0.38114977615E-01  0.68320596978E-01  0.57467880515E+02  0.57948445513E+02  0.74470750000E+01 0.  1.
<mgrwt>
<rscale>  0 0.14905754E+02</rscale>
<asrwt>0</asrwt>
<pdfrwt beam="2">  1        2 0.98332590E+00 0.14905754E+02</pdfrwt>
<pdfrwt beam="1">  1       -2 0.99589785E+00 0.14905754E+02</pdfrwt>
<totfact>-0.43463126E-13</totfact>
</mgrwt>
</event>
<event>
 4    1 -0.5010510E-019  0.1490138E+02  0.7818608E-02  0.1871093E+00
          2   -1    0    0  501    0  0.00000000000E+00  0.00000000000E+00  0.11875303311E+03  0.11875303314E+03  0.25500000000E-02 0. -1.
         -2   -1    0    0    0  501 -0.00000000000E+00 -0.00000000000E+00 -0.46746062118E+00  0.46746757625E+00  0.25500000000E-02 0.  1.
         31    1    1    2    0    0 -0.16956243626E-01 -0.12611194651E+00  0.57590064038E+02  0.58069704612E+02  0.74470750000E+01 0.  1.
        -31    1    1    2    0    0  0.16956243626E-01  0.12611194651E+00  0.60695508452E+02  0.61150796103E+02  0.74470750000E+01 0. -1.
<mgrwt>
<rscale>  0 0.14901380E+02</rscale>
<asrwt>0</asrwt>
<pdfrwt beam="1">  1        2 0.98579851E+00 0.14901380E+02</pdfrwt>
<pdfrwt beam="2">  1       -2 0.99281702E+00 0.14901380E+02</pdfrwt>
<totfact>-0.25610011E-13</totfact>
</mgrwt>
</event>
<event>
 4    1  0.5010510E-019  0.1490233E+02  0.7818608E-02  0.1871064E+00
          2   -1    0    0  501    0  0.00000000000E+00  0.00000000000E+00  0.12002722325E+03  0.12002722328E+03  0.25500000000E-02 0. -1.
         -2   -1    0    0    0  501 -0.00000000000E+00 -0.00000000000E+00 -0.46255686678E+00  0.46256389559E+00  0.25500000000E-02 0.  1.
         31    1    1    2    0    0 -0.23834505622E+00  0.50501240059E-01  0.59463337706E+02  0.59928347349E+02  0.74470750000E+01 0.  1.
        -31    1    1    2    0    0  0.23834505622E+00 -0.50501240059E-01  0.60101328675E+02  0.60561439822E+02  0.74470750000E+01 0. -1.
<mgrwt>
<rscale>  0 0.14902328E+02</rscale>
<asrwt>0</asrwt>
<pdfrwt beam="1">  1        2 0.99629386E+00 0.14902328E+02</pdfrwt>
<pdfrwt beam="2">  1       -2 0.98248321E+00 0.14902328E+02</pdfrwt>
<totfact> 0.75202716E-13</totfact>
</mgrwt>
</event>
<event>
 4    1  0.5010510E-019  0.1490818E+02  0.7818608E-02  0.1870884E+00
          2   -1    0    0  501    0  0.00000000000E+00  0.00000000000E+00  0.12040909302E+03  0.12040909304E+03  0.25500000000E-02 0.  1.
         -2   -1    0    0    0  501 -0.00000000000E+00 -0.00000000000E+00 -0.46145189096E+00  0.46145893661E+00  0.25500000000E-02 0. -1.
         31    1    1    2    0    0 -0.57837378788E-01 -0.25710666347E+00  0.58455800758E+02  0.58928847073E+02  0.74470750000E+01 0.  1.
        -31    1    1    2    0    0  0.57837378788E-01  0.25710666347E+00  0.61491840368E+02  0.61941704908E+02  0.74470750000E+01 0.  1.
<mgrwt>
<rscale>  0 0.14908176E+02</rscale>
<asrwt>0</asrwt>
<pdfrwt beam="1">  1        2 0.99944229E+00 0.14908176E+02</pdfrwt>
<pdfrwt beam="2">  1       -2 0.98015714E+00 0.14908176E+02</pdfrwt>
<totfact> 0.24749552E-13</totfact>
</mgrwt>
</event>
<event>
 4    1  0.5010510E-019  0.1490570E+02  0.7818608E-02  0.1870960E+00
         -2   -1    0    0    0  501 -0.00000000000E+00  0.00000000000E+00  0.11912442797E+03  0.11912442799E+03  0.25500000000E-02 0.  1.
          2   -1    0    0  501    0  0.00000000000E+00 -0.00000000000E+00 -0.46627347674E+00  0.46628044953E+00  0.25500000000E-02 0. -1.
         31    1    1    2    0    0  0.58695032314E-02 -0.28731396722E+00  0.58856463662E+02  0.59326426023E+02  0.74470750000E+01 0. -1.
        -31    1    1    2    0    0 -0.58695032314E-02  0.28731396722E+00  0.59801690828E+02  0.60264282421E+02  0.74470750000E+01 0.  1.
<mgrwt>
<rscale>  0 0.14905701E+02</rscale>
<asrwt>0</asrwt>
<pdfrwt beam="2">  1        2 0.99031768E+00 0.14905701E+02</pdfrwt>
<pdfrwt beam="1">  1       -2 0.98885965E+00 0.14905701E+02</pdfrwt>
<totfact> 0.12004797E-13</totfact>
</mgrwt>
</event>
<event>
 4    1 -0.5010510E-019  0.1491938E+02  0.7818608E-02  0.1870539E+00
          2   -1    0    0  501    0  0.00000000000E+00  0.00000000000E+00  0.11870607082E+03  0.11870607085E+03  0.25500000000E-02 0.  1.
         -2   -1    0    0    0  501 -0.00000000000E+00 -0.00000000000E+00 -0.46877588107E+00  0.46878281664E+00  0.25500000000E-02 0. -1.
         31    1    1    2    0    0  0.32042766165E+00 -0.13691327055E-01  0.61449841312E+02  0.61900280974E+02  0.74470750000E+01 0.  1.
        -31    1    1    2    0    0 -0.32042766165E+00  0.13691327055E-01  0.56787453630E+02  0.57274572693E+02  0.74470750000E+01 0. -1.
<mgrwt>
<rscale>  0 0.14919378E+02</rscale>
<asrwt>0</asrwt>
<pdfrwt beam="1">  1        2 0.98542107E+00 0.14919378E+02</pdfrwt>
<pdfrwt beam="2">  1       -2 0.99559787E+00 0.14919378E+02</pdfrwt>
<totfact>-0.31558765E-13</totfact>
</mgrwt>
</event>
<event>
 4    1 -0.5010510E-019  0.1492490E+02  0.7818608E-02  0.1870369E+00
         -2   -1    0    0    0  501 -0.00000000000E+00  0.00000000000E+00  0.11990310992E+03  0.11990310995E+03  0.25500000000E-02 0. -1.
          2   -1    0    0  501    0  0.00000000000E+00 -0.00000000000E+00 -0.46443954021E+00  0.46444654053E+00  0.25500000000E-02 0.  1.
         31    1    1    2    0    0  0.58565609767E-01  0.46457173872E+00  0.58913440290E+02  0.59384102500E+02  0.74470750000E+01 0. -1.
        -31    1    1    2    0    0 -0.58565609767E-01 -0.46457173872E+00  0.60525230094E+02  0.60983453993E+02  0.74470750000E+01 0.  1.
<mgrwt>
<rscale>  0 0.14924901E+02</rscale>
<asrwt>0</asrwt>
<pdfrwt beam="2">  1        2 0.98646265E+00 0.14924901E+02</pdfrwt>
<pdfrwt beam="1">  1       -2 0.99528317E+00 0.14924901E+02</pdfrwt>
<totfact>-0.27371891E-13</totfact>
</mgrwt>
</event>
<event>
 4    1 -0.5010510E-019  0.1489836E+02  0.7818608E-02  0.1871186E+00
          2   -1    0    0  501    0  0.00000000000E+00  0.00000000000E+00  0.11818764909E+03  0.11818764911E+03  0.25500000000E-02 0. -1.
         -2   -1    0    0    0  501 -0.00000000000E+00 -0.00000000000E+00 -0.46950627169E+00  0.46951319646E+00  0.25500000000E-02 0.  1.
         31    1    1    2    0    0  0.16525658349E+00 -0.72132937388E-02  0.58357429796E+02  0.58830909395E+02  0.74470750000E+01 0. -1.
        -31    1    1    2    0    0 -0.16525658349E+00  0.72132937388E-02  0.59360713017E+02  0.59826252914E+02  0.74470750000E+01 0. -1.
<mgrwt>
<rscale>  0 0.14898356E+02</rscale>
<asrwt>0</asrwt>
<pdfrwt beam="1">  1        2 0.98114044E+00 0.14898356E+02</pdfrwt>
<pdfrwt beam="2">  1       -2 0.99712572E+00 0.14898356E+02</pdfrwt>
<totfact>-0.51590830E-13</totfact>
</mgrwt>
</event>
<event>
 4    1 -0.5010510E-019  0.1496966E+02  0.7818608E-02  0.1868996E+00
         -2   -1    0    0    0  501 -0.00000000000E+00  0.00000000000E+00  0.12035434262E+03  0.12035434265E+03  0.25500000000E-02 0.  1.
          2   -1    0    0  501    0  0.00000000000E+00 -0.00000000000E+00 -0.46547784424E+00  0.46548482894E+00  0.25500000000E-02 0. -1.
         31    1    1    2    0    0  0.37696106343E-01  0.59500926487E-01  0.65977811906E+02  0.66396803773E+02  0.74470750000E+01 0.  1.
        -31    1    1    2    0    0 -0.37696106343E-01 -0.59500926487E-01  0.53911052873E+02  0.54423023706E+02  0.74470750000E+01 0. -1.
<mgrwt>
<rscale>  0 0.14969663E+02</rscale>
<asrwt>0</asrwt>
<pdfrwt beam="2">  1        2 0.98867376E+00 0.14969663E+02</pdfrwt>
<pdfrwt beam="1">  1       -2 0.99902287E+00 0.14969663E+02</pdfrwt>
<totfact>-0.65424777E-14</totfact>
</mgrwt>
</event>
<event>
 4    1  0.5010510E-019  0.1494550E+02  0.7818608E-02  0.1869736E+00
          2   -1    0    0  501    0  0.00000000000E+00  0.00000000000E+00  0.11997656463E+03  0.11997656465E+03  0.25500000000E-02 0. -1.
         -2   -1    0    0    0  501 -0.00000000000E+00 -0.00000000000E+00 -0.46543710400E+00  0.46544408932E+00  0.25500000000E-02 0.  1.
         31    1    1    2    0    0  0.54536058474E+00 -0.28800463738E+00  0.60172458096E+02  0.60634676582E+02  0.74470750000E+01 0. -1.
        -31    1    1    2    0    0 -0.54536058474E+00  0.28800463738E+00  0.59338669427E+02  0.59807332161E+02  0.74470750000E+01 0. -1.
<mgrwt>
<rscale>  0 0.14945497E+02</rscale>
<asrwt>0</asrwt>
<pdfrwt beam="1">  1        2 0.99589880E+00 0.14945497E+02</pdfrwt>
<pdfrwt beam="2">  1       -2 0.98857557E+00 0.14945497E+02</pdfrwt>
<totfact> 0.93429043E-14</totfact>
</mgrwt>
</event>
<event>
 4    1 -0.5010510E-019  0.1494403E+02  0.7818608E-02  0.1869781E+00
          2   -1    0    0  501    0  0.00000000000E+00  0.00000000000E+00  0.11921541043E+03  0.11921541046E+03  0.25500000000E-02 0. -1.
         -2   -1    0    0    0  501 -0.00000000000E+00 -0.00000000000E+00 -0.46831689783E+00  0.46832384019E+00  0.25500000000E-02 0.  1.
         31    1    1    2    0    0 -0.21092984591E+00  0.45257036166E+00  0.62179723876E+02  0.62626083213E+02  0.74470750000E+01 0.  1.
        -31    1    1    2    0    0  0.21092984591E+00 -0.45257036166E+00  0.56567369661E+02  0.57057651088E+02  0.74470750000E+01 0.  1.
<mgrwt>
<rscale>  0 0.14944030E+02</rscale>
<asrwt>0</asrwt>
<pdfrwt beam="1">  1        2 0.98962885E+00 0.14944030E+02</pdfrwt>
<pdfrwt beam="2">  1       -2 0.99464361E+00 0.14944030E+02</pdfrwt>
<totfact>-0.18560589E-13</totfact>
</mgrwt>
</event>
<event>
 4    1  0.5010510E-019  0.1489852E+02  0.7818608E-02  0.1871181E+00
          2   -1    0    0  501    0  0.00000000000E+00  0.00000000000E+00  0.11973298035E+03  0.11973298038E+03  0.25500000000E-02 0. -1.
         -2   -1    0    0    0  501 -0.00000000000E+00 -0.00000000000E+00 -0.46345700447E+00  0.46346401963E+00  0.25500000000E-02 0.  1.
         31    1    1    2    0    0 -0.41081199972E-01  0.15825536917E+00  0.59017536737E+02  0.59485757127E+02  0.74470750000E+01 0. -1.
        -31    1    1    2    0    0  0.41081199972E-01 -0.15825536917E+00  0.60251986609E+02  0.60710687270E+02  0.74470750000E+01 0. -1.
<mgrwt>
<rscale>  0 0.14898525E+02</rscale>
<asrwt>0</asrwt>
<pdfrwt beam="1">  1        2 0.99386830E+00 0.14898525E+02</pdfrwt>
<pdfrwt beam="2">  1       -2 0.98437844E+00 0.14898525E+02</pdfrwt>
<totfact> 0.63465587E-13</totfact>
</mgrwt>
</event>
<event>
 4    1 -0.5010510E-019  0.1496072E+02  0.7818608E-02  0.1869270E+00
          2   -1    0    0  501    0  0.00000000000E+00  0.00000000000E+00  0.11956473602E+03  0.11956473604E+03  0.25500000000E-02 0.  1.
         -2   -1    0    0    0  501 -0.00000000000E+00 -0.00000000000E+00 -0.46799203850E+00  0.46799898568E+00  0.25500000000E-02 0. -1.
         31    1    1    2    0    0  0.75983758215E-01 -0.64956306234E+00  0.61657897780E+02  0.62109443649E+02  0.74470750000E+01 0.  1.
        -31    1    1    2    0    0 -0.75983758215E-01  0.64956306234E+00  0.57438846198E+02  0.57923291380E+02  0.74470750000E+01 0. -1.
<mgrwt>
<rscale>  0 0.14960717E+02</rscale>
<asrwt>0</asrwt>
<pdfrwt beam="1">  1        2 0.99251464E+00 0.14960717E+02</pdfrwt>
<pdfrwt beam="2">  1       -2 0.99396772E+00 0.14960717E+02</pdfrwt>
<totfact>-0.14238849E-13</totfact>
</mgrwt>
</event>
<event>
 4    1  0.5010510E-019  0.1490837E+02  0.7818608E-02  0.1870878E+00
          2   -1    0    0  501    0  0.00000000000E+00  0.00000000000E+00  0.11975454776E+03  0.11975454778E+03  0.25500000000E-02 0.  1.
         -2   -1    0    0    0  501 -0.00000000000E+00 -0.00000000000E+00 -0.46398613886E+00  0.46399314602E+00  0.25500000000E-02 0. -1.
         31    1    1    2    0    0 -0.85724490393E-01 -0.85638548885E-01  0.57209199007E+02  0.57691993029E+02  0.74470750000E+01 0. -1.
        -31    1    1    2    0    0  0.85724490393E-01  0.85638548885E-01  0.62081362610E+02  0.62526547899E+02  0.74470750000E+01 0.  1.
<mgrwt>
<rscale>  0 0.14908370E+02</rscale>
<asrwt>0</asrwt>
<pdfrwt beam="1">  1        2 0.99405101E+00 0.14908370E+02</pdfrwt>
<pdfrwt beam="2">  1       -2 0.98549864E+00 0.14908370E+02</pdfrwt>
<totfact> 0.45653841E-13</totfact>
</mgrwt>
</event>
<event>
 4    1 -0.5010510E-019  0.1498012E+02  0.7818608E-02  0.1868676E+00
          2   -1    0    0  501    0  0.00000000000E+00  0.00000000000E+00  0.11982864178E+03  0.11982864181E+03  0.25500000000E-02 0.  1.
         -2   -1    0    0    0  501 -0.00000000000E+00 -0.00000000000E+00 -0.46817318114E+00  0.46818012563E+00  0.25500000000E-02 0. -1.
         31    1    1    2    0    0 -0.30616940620E+00 -0.48635653503E+00  0.55196351668E+02  0.55699429493E+02  0.74470750000E+01 0. -1.
        -31    1    1    2    0    0  0.30616940620E+00  0.48635653503E+00  0.64164116932E+02  0.64597392441E+02  0.74470750000E+01 0.  1.
<mgrwt>
<rscale>  0 0.14980117E+02</rscale>
<asrwt>0</asrwt>
<pdfrwt beam="1">  1        2 0.99469829E+00 0.14980117E+02</pdfrwt>
<pdfrwt beam="2">  1       -2 0.99435948E+00 0.14980117E+02</pdfrwt>
<totfact>-0.12241899E-13</totfact>
</mgrwt>
</event>
<event>
 4    1 -0.5010510E-019  0.1497773E+02  0.7818608E-02  0.1868749E+00
         -2   -1    0    0    0  501 -0.00000000000E+00  0.00000000000E+00  0.11977620554E+03  0.11977620557E+03  0.25500000000E-02 0.  1.
          2   -1    0    0  501    0  0.00000000000E+00 -0.00000000000E+00 -0.46822863783E+00  0.46823558150E+00  0.25500000000E-02 0. -1.
         31    1    1    2    0    0  0.15301719654E+00 -0.53078638188E+00  0.64188291036E+02  0.64621209991E+02  0.74470750000E+01 0.  1.
        -31    1    1    2    0    0 -0.15301719654E+00  0.53078638188E+00  0.55119685869E+02  0.55623231161E+02  0.74470750000E+01 0. -1.
<mgrwt>
<rscale>  0 0.14977726E+02</rscale>
<asrwt>0</asrwt>
<pdfrwt beam="2">  1        2 0.99447511E+00 0.14977726E+02</pdfrwt>
<pdfrwt beam="1">  1       -2 0.99426517E+00 0.14977726E+02</pdfrwt>
<totfact>-0.12451779E-13</totfact>
</mgrwt>
</event>
<event>
 4    1 -0.5010510E-019  0.1503477E+02  0.7818608E-02  0.1867009E+00
          2   -1    0    0  501    0  0.00000000000E+00  0.00000000000E+00  0.12026330558E+03  0.12026330561E+03  0.25500000000E-02 0.  1.
         -2   -1    0    0    0  501 -0.00000000000E+00 -0.00000000000E+00 -0.46989109586E+00  0.46989801496E+00  0.25500000000E-02 0. -1.
         31    1    1    2    0    0  0.56186141133E+00  0.32791326853E+00  0.66265140474E+02  0.66685463059E+02  0.74470750000E+01 0.  1.
        -31    1    1    2    0    0 -0.56186141133E+00 -0.32791326853E+00  0.53528274011E+02  0.54047740563E+02  0.74470750000E+01 0. -1.
<mgrwt>
<rscale>  0 0.15034770E+02</rscale>
<asrwt>0</asrwt>
<pdfrwt beam="1">  1        2 0.99830660E+00 0.15034770E+02</pdfrwt>
<pdfrwt beam="2">  1       -2 0.99800797E+00 0.15034770E+02</pdfrwt>
<totfact>-0.34002557E-14</totfact>
</mgrwt>
</event>
<event>
 4    1  0.5010510E-019  0.1491131E+02  0.7818608E-02  0.1870787E+00
         -2   -1    0    0    0  501 -0.00000000000E+00  0.00000000000E+00  0.11852749725E+03  0.11852749728E+03  0.25500000000E-02 0.  1.
          2   -1    0    0  501    0  0.00000000000E+00 -0.00000000000E+00 -0.46897474081E+00  0.46898167343E+00  0.25500000000E-02 0. -1.
         31    1    1    2    0    0 -0.28934990533E+00  0.55474875671E-01  0.57411614144E+02  0.57893343016E+02  0.74470750000E+01 0.  1.
        -31    1    1    2    0    0  0.28934990533E+00 -0.55474875671E-01  0.60646908366E+02  0.61103135936E+02  0.74470750000E+01 0.  1.
<mgrwt>
<rscale>  0 0.14911313E+02</rscale>
<asrwt>0</asrwt>
<pdfrwt beam="2">  1        2 0.99601264E+00 0.14911313E+02</pdfrwt>
<pdfrwt beam="1">  1       -2 0.98394615E+00 0.14911313E+02</pdfrwt>
<totfact> 0.56479018E-13</totfact>
</mgrwt>
</event>
<event>
 4    1  0.5010510E-019  0.1491854E+02  0.7818608E-02  0.1870564E+00
          2   -1    0    0  501    0  0.00000000000E+00  0.00000000000E+00  0.12037261983E+03  0.12037261985E+03  0.25500000000E-02 0. -1.
         -2   -1    0    0    0  501 -0.00000000000E+00 -0.00000000000E+00 -0.46223389771E+00  0.46224093143E+00  0.25500000000E-02 0.  1.
         31    1    1    2    0    0 -0.19186381715E+00 -0.10839832769E+00  0.62911771538E+02  0.63351388982E+02  0.74470750000E+01 0. -1.
        -31    1    1    2    0    0  0.19186381715E+00  0.10839832769E+00  0.56998614390E+02  0.57483471801E+02  0.74470750000E+01 0. -1.
<mgrwt>
<rscale>  0 0.14918543E+02</rscale>
<asrwt>0</asrwt>
<pdfrwt beam="1">  1        2 0.99914717E+00 0.14918543E+02</pdfrwt>
<pdfrwt beam="2">  1       -2 0.98181066E+00 0.14918543E+02</pdfrwt>
<totfact> 0.27094755E-13</totfact>
</mgrwt>
</event>
<event>
 4    1  0.5010510E-019  0.1492041E+02  0.7818608E-02  0.1870507E+00
         -2   -1    0    0    0  501 -0.00000000000E+00  0.00000000000E+00  0.11876429988E+03  0.11876429991E+03  0.25500000000E-02 0. -1.
          2   -1    0    0  501    0  0.00000000000E+00 -0.00000000000E+00 -0.46861089353E+00  0.46861783154E+00  0.25500000000E-02 0.  1.
         31    1    1    2    0    0  0.36863388641E+00  0.23491602420E+00  0.58602479415E+02  0.59075380626E+02  0.74470750000E+01 0.  1.
        -31    1    1    2    0    0 -0.36863388641E+00 -0.23491602420E+00  0.59693209574E+02  0.60157537115E+02  0.74470750000E+01 0. -1.
<mgrwt>
<rscale>  0 0.14920410E+02</rscale>
<asrwt>0</asrwt>
<pdfrwt beam="2">  1        2 0.99525076E+00 0.14920410E+02</pdfrwt>
<pdfrwt beam="1">  1       -2 0.98590119E+00 0.14920410E+02</pdfrwt>
<totfact> 0.35873921E-13</totfact>
</mgrwt>
</event>
<event>
 4    1  0.5010510E-019  0.1496648E+02  0.7818608E-02  0.1869093E+00
         -2   -1    0    0    0  501 -0.00000000000E+00  0.00000000000E+00  0.11914345221E+03  0.11914345223E+03  0.25500000000E-02 0. -1.
          2   -1    0    0  501    0  0.00000000000E+00 -0.00000000000E+00 -0.47000862462E+00  0.47001554199E+00  0.25500000000E-02 0.  1.
         31    1    1    2    0    0  0.41928370767E+00  0.39607902012E+00  0.62975204214E+02  0.63416622027E+02  0.74470750000E+01 0. -1.
        -31    1    1    2    0    0 -0.41928370767E+00 -0.39607902012E+00  0.55698239368E+02  0.56196845750E+02  0.74470750000E+01 0. -1.
<mgrwt>
<rscale>  0 0.14966478E+02</rscale>
<asrwt>0</asrwt>
<pdfrwt beam="2">  1        2 0.99822009E+00 0.14966478E+02</pdfrwt>
<pdfrwt beam="1">  1       -2 0.98904784E+00 0.14966478E+02</pdfrwt>
<totfact> 0.34599406E-14</totfact>
</mgrwt>
</event>
<event>
 4    1  0.5010510E-019  0.1493805E+02  0.7818608E-02  0.1869965E+00
         -2   -1    0    0    0  501 -0.00000000000E+00  0.00000000000E+00  0.11872497689E+03  0.11872497692E+03  0.25500000000E-02 0.  1.
          2   -1    0    0  501    0  0.00000000000E+00 -0.00000000000E+00 -0.46987513107E+00  0.46988205041E+00  0.25500000000E-02 0. -1.
         31    1    1    2    0    0  0.19990336666E+00  0.50880042249E+00  0.57779010216E+02  0.58259520997E+02  0.74470750000E+01 0. -1.
        -31    1    1    2    0    0 -0.19990336666E+00 -0.50880042249E+00  0.60476091541E+02  0.60935337969E+02  0.74470750000E+01 0.  1.
<mgrwt>
<rscale>  0 0.14938049E+02</rscale>
<asrwt>0</asrwt>
<pdfrwt beam="2">  1        2 0.99792387E+00 0.14938049E+02</pdfrwt>
<pdfrwt beam="1">  1       -2 0.98558649E+00 0.14938049E+02</pdfrwt>
<totfact> 0.23039308E-13</totfact>
</mgrwt>
</event>
<event>
 4    1  0.5010510E-019  0.1490282E+02  0.7818608E-02  0.1871049E+00
         -2   -1    0    0    0  501 -0.00000000000E+00  0.00000000000E+00  0.11856185707E+03  0.11856185710E+03  0.25500000000E-02 0. -1.
          2   -1    0    0  501    0  0.00000000000E+00 -0.00000000000E+00 -0.46830492397E+00  0.46831186651E+00  0.25500000000E-02 0.  1.
         31    1    1    2    0    0 -0.37089940785E-01 -0.11520121435E-02  0.61054909538E+02  0.61507416477E+02  0.74470750000E+01 0. -1.
        -31    1    1    2    0    0  0.37089940785E-01  0.11520121435E-02  0.57038642610E+02  0.57522752488E+02  0.74470750000E+01 0.  1.
<mgrwt>
<rscale>  0 0.14902821E+02</rscale>
<asrwt>0</asrwt>
<pdfrwt beam="2">  1        2 0.99459683E+00 0.14902821E+02</pdfrwt>
<pdfrwt beam="1">  1       -2 0.98422472E+00 0.14902821E+02</pdfrwt>
<totfact> 0.62051079E-13</totfact>
</mgrwt>
</event>
<event>
 4    1  0.5010510E-019  0.1493543E+02  0.7818608E-02  0.1870045E+00
         -2   -1    0    0    0  501 -0.00000000000E+00  0.00000000000E+00  0.11921527788E+03  0.11921527791E+03  0.25500000000E-02 0.  1.
          2   -1    0    0  501    0  0.00000000000E+00 -0.00000000000E+00 -0.46777883153E+00  0.46778578188E+00  0.25500000000E-02 0. -1.
         31    1    1    2    0    0 -0.27609753498E+00  0.43956615510E+00  0.60944586008E+02  0.61400089071E+02  0.74470750000E+01 0.  1.
        -31    1    1    2    0    0  0.27609753498E+00 -0.43956615510E+00  0.57802913039E+02  0.58282974616E+02  0.74470750000E+01 0.  1.
<mgrwt>
<rscale>  0 0.14935435E+02</rscale>
<asrwt>0</asrwt>
<pdfrwt beam="2">  1        2 0.99350531E+00 0.14935435E+02</pdfrwt>
<pdfrwt beam="1">  1       -2 0.98962331E+00 0.14935435E+02</pdfrwt>
<totfact> 0.35070574E-14</totfact>
</mgrwt>
</event>
<event>
 4    1 -0.5010510E-019  0.1499361E+02  0.7818608E-02  0.1868264E+00
          2   -1    0    0  501    0  0.00000000000E+00  0.00000000000E+00  0.11986234311E+03  0.11986234313E+03  0.25500000000E-02 0.  1.
         -2   -1    0    0    0  501 -0.00000000000E+00 -0.00000000000E+00 -0.46888517535E+00  0.46889210930E+00  0.25500000000E-02 0. -1.
         31    1    1    2    0    0  0.45753927867E+00 -0.58341363463E+00  0.63226625355E+02  0.63668004473E+02  0.74470750000E+01 0.  1.
        -31    1    1    2    0    0 -0.45753927867E+00  0.58341363463E+00  0.56166832576E+02  0.56663230770E+02  0.74470750000E+01 0. -1.
<mgrwt>
<rscale>  0 0.14993611E+02</rscale>
<asrwt>0</asrwt>
<pdfrwt beam="1">  1        2 0.99498284E+00 0.14993611E+02</pdfrwt>
<pdfrwt beam="2">  1       -2 0.99586687E+00 0.14993611E+02</pdfrwt>
<totfact>-0.11367019E-13</totfact>
</mgrwt>
</event>
<event>
 4    1  0.5010510E-019  0.1489670E+02  0.7818608E-02  0.1871237E+00
          2   -1    0    0  501    0  0.00000000000E+00  0.00000000000E+00  0.11981551218E+03  0.11981551220E+03  0.25500000000E-02 0.  1.
         -2   -1    0    0    0  501 -0.00000000000E+00 -0.00000000000E+00 -0.46302430359E+00  0.46303132531E+00  0.25500000000E-02 0. -1.
         31    1    1    2    0    0 -0.79522949038E-01 -0.11521626015E-01  0.60580237551E+02  0.61036305298E+02  0.74470750000E+01 0.  1.
        -31    1    1    2    0    0  0.79522949038E-01  0.11521626015E-01  0.58772250322E+02  0.59242238231E+02  0.74470750000E+01 0. -1.
<mgrwt>
<rscale>  0 0.14896700E+02</rscale>
<asrwt>0</asrwt>
<pdfrwt beam="1">  1        2 0.99454715E+00 0.14896700E+02</pdfrwt>
<pdfrwt beam="2">  1       -2 0.98346555E+00 0.14896700E+02</pdfrwt>
<totfact> 0.74914573E-13</totfact>
</mgrwt>
</event>
<event>
 4    1 -0.5010510E-019  0.1497099E+02  0.7818608E-02  0.1868955E+00
          2   -1    0    0  501    0  0.00000000000E+00  0.00000000000E+00  0.12008390625E+03  0.12008390628E+03  0.25500000000E-02 0. -1.
         -2   -1    0    0    0  501 -0.00000000000E+00 -0.00000000000E+00 -0.46660901770E+00  0.46661598548E+00  0.25500000000E-02 0.  1.
         31    1    1    2    0    0  0.28054418729E+00  0.13905623547E+00  0.65362309189E+02  0.65785928817E+02  0.74470750000E+01 0. -1.
        -31    1    1    2    0    0 -0.28054418729E+00 -0.13905623547E+00  0.54254988045E+02  0.54764593448E+02  0.74470750000E+01 0.  1.
<mgrwt>
<rscale>  0 0.14970993E+02</rscale>
<asrwt>0</asrwt>
<pdfrwt beam="1">  1        2 0.99679606E+00 0.14970993E+02</pdfrwt>
<pdfrwt beam="2">  1       -2 0.99105844E+00 0.14970993E+02</pdfrwt>
<totfact>-0.34134903E-14</totfact>
</mgrwt>
</event>
<event>
 4    1 -0.5010510E-019  0.1491531E+02  0.7818608E-02  0.1870664E+00
          2   -1    0    0  501    0  0.00000000000E+00  0.00000000000E+00  0.11858732471E+03  0.11858732474E+03  0.25500000000E-02 0. -1.
         -2   -1    0    0    0  501 -0.00000000000E+00 -0.00000000000E+00 -0.46898951143E+00  0.46899644384E+00  0.25500000000E-02 0.  1.
         31    1    1    2    0    0 -0.12021061616E+00 -0.75428230373E-01  0.62019672479E+02  0.62465341114E+02  0.74470750000E+01 0. -1.
        -31    1    1    2    0    0  0.12021061616E+00  0.75428230373E-01  0.56098662719E+02  0.56590980066E+02  0.74470750000E+01 0.  1.
<mgrwt>
<rscale>  0 0.14915311E+02</rscale>
<asrwt>0</asrwt>
<pdfrwt beam="1">  1        2 0.98444096E+00 0.14915311E+02</pdfrwt>
<pdfrwt beam="2">  1       -2 0.99604586E+00 0.14915311E+02</pdfrwt>
<totfact>-0.35518220E-13</totfact>
</mgrwt>
</event>
<event>
 4    1  0.5010510E-019  0.1490798E+02  0.7818608E-02  0.1870890E+00
          2   -1    0    0  501    0  0.00000000000E+00  0.00000000000E+00  0.11982487428E+03  0.11982487431E+03  0.25500000000E-02 0. -1.
         -2   -1    0    0    0  501 -0.00000000000E+00 -0.00000000000E+00 -0.46368939430E+00  0.46369640594E+00  0.25500000000E-02 0.  1.
         31    1    1    2    0    0  0.24031405019E+00 -0.20784141418E+00  0.60047854544E+02  0.60508715986E+02  0.74470750000E+01 0. -1.
        -31    1    1    2    0    0 -0.24031405019E+00  0.20784141418E+00  0.59313330342E+02  0.59779854727E+02  0.74470750000E+01 0. -1.
<mgrwt>
<rscale>  0 0.14907977E+02</rscale>
<asrwt>0</asrwt>
<pdfrwt beam="1">  1        2 0.99463006E+00 0.14907977E+02</pdfrwt>
<pdfrwt beam="2">  1       -2 0.98487303E+00 0.14907977E+02</pdfrwt>
<totfact> 0.52088621E-13</totfact>
</mgrwt>
</event>
<event>
 4    1 -0.5010510E-019  0.1498226E+02  0.7818608E-02  0.1868610E+00
          2   -1    0    0  501    0  0.00000000000E+00  0.00000000000E+00  0.11992106777E+03  0.11992106780E+03  0.25500000000E-02 0. -1.
         -2   -1    0    0    0  501 -0.00000000000E+00 -0.00000000000E+00 -0.46794603501E+00  0.46795298287E+00  0.25500000000E-02 0.  1.
         31    1    1    2    0    0  0.14416440731E+00  0.68106365737E-01  0.53335177577E+02  0.53852813437E+02  0.74470750000E+01 0.  1.
        -31    1    1    2    0    0 -0.14416440731E+00 -0.68106365737E-01  0.66117944157E+02  0.66536207342E+02  0.74470750000E+01 0. -1.
<mgrwt>
<rscale>  0 0.14982257E+02</rscale>
<asrwt>0</asrwt>
<pdfrwt beam="1">  1        2 0.99546066E+00 0.14982257E+02</pdfrwt>
<pdfrwt beam="2">  1       -2 0.99388190E+00 0.14982257E+02</pdfrwt>
<totfact>-0.10995277E-13</totfact>
</mgrwt>
</event>
<event>
 4    1  0.5010510E-019  0.1493495E+02  0.7818608E-02  0.1870060E+00
          2   -1    0    0  501    0  0.00000000000E+00  0.00000000000E+00  0.12012456998E+03  0.12012457001E+03  0.25500000000E-02 0. -1.
         -2   -1    0    0    0  501 -0.00000000000E+00 -0.00000000000E+00 -0.46420801467E+00  0.46421501848E+00  0.25500000000E-02 0.  1.
         31    1    1    2    0    0 -0.46302603195E+00 -0.15160032649E+00  0.57741609511E+02  0.58221901126E+02  0.74470750000E+01 0.  1.
        -31    1    1    2    0    0  0.46302603195E+00  0.15160032649E+00  0.61918752454E+02  0.62366883899E+02  0.74470750000E+01 0.  1.
<mgrwt>
<rscale>  0 0.14934954E+02</rscale>
<asrwt>0</asrwt>
<pdfrwt beam="1">  1        2 0.99711245E+00 0.14934954E+02</pdfrwt>
<pdfrwt beam="2">  1       -2 0.98597981E+00 0.14934954E+02</pdfrwt>
<totfact> 0.25828118E-13</totfact>
</mgrwt>
</event>
<event>
 4    1 -0.5010510E-019  0.1490128E+02  0.7818608E-02  0.1871096E+00
          2   -1    0    0  501    0  0.00000000000E+00  0.00000000000E+00  0.11860353660E+03  0.11860353663E+03  0.25500000000E-02 0. -1.
         -2   -1    0    0    0  501 -0.00000000000E+00 -0.00000000000E+00 -0.46804342551E+00  0.46805037193E+00  0.25500000000E-02 0.  1.
         31    1    1    2    0    0  0.92578151071E-01  0.10635371296E+00  0.57611490463E+02  0.58090985886E+02  0.74470750000E+01 0.  1.
        -31    1    1    2    0    0 -0.92578151071E-01 -0.10635371296E+00  0.60524002714E+02  0.60980601115E+02  0.74470750000E+01 0. -1.
<mgrwt>
<rscale>  0 0.14901278E+02</rscale>
<asrwt>0</asrwt>
<pdfrwt beam="1">  1        2 0.98456719E+00 0.14901278E+02</pdfrwt>
<pdfrwt beam="2">  1       -2 0.99404502E+00 0.14901278E+02</pdfrwt>
<totfact>-0.36572692E-13</totfact>
</mgrwt>
</event>
<event>
 4    1  0.5010510E-019  0.1495205E+02  0.7818608E-02  0.1869535E+00
         -2   -1    0    0    0  501 -0.00000000000E+00  0.00000000000E+00  0.11900086687E+03  0.11900086690E+03  0.25500000000E-02 0.  1.
          2   -1    0    0  501    0  0.00000000000E+00 -0.00000000000E+00 -0.46966470770E+00  0.46967163014E+00  0.25500000000E-02 0. -1.
         31    1    1    2    0    0 -0.30751086157E+00  0.54255967695E+00  0.57607504328E+02  0.58090209286E+02  0.74470750000E+01 0. -1.
        -31    1    1    2    0    0  0.30751086157E+00 -0.54255967695E+00  0.60923697836E+02  0.61380329243E+02  0.74470750000E+01 0. -1.
<mgrwt>
<rscale>  0 0.14952046E+02</rscale>
<asrwt>0</asrwt>
<pdfrwt beam="2">  1        2 0.99748785E+00 0.14952046E+02</pdfrwt>
<pdfrwt beam="1">  1       -2 0.98786600E+00 0.14952046E+02</pdfrwt>
<totfact> 0.10631369E-13</totfact>
</mgrwt>
</event>
<event>
 4    1 -0.5010510E-019  0.1496463E+02  0.7818608E-02  0.1869150E+00
         -2   -1    0    0    0  501 -0.00000000000E+00  0.00000000000E+00  0.11983023342E+03  0.11983023345E+03  0.25500000000E-02 0.  1.
          2   -1    0    0  501    0  0.00000000000E+00 -0.00000000000E+00 -0.46719948752E+00  0.46720644649E+00  0.25500000000E-02 0. -1.
         31    1    1    2    0    0 -0.67591418826E+00 -0.15281347433E+00  0.57959155214E+02  0.58439736577E+02  0.74470750000E+01 0. -1.
        -31    1    1    2    0    0  0.67591418826E+00  0.15281347433E+00  0.61403878719E+02  0.61857703318E+02  0.74470750000E+01 0.  1.
<mgrwt>
<rscale>  0 0.14964631E+02</rscale>
<asrwt>0</asrwt>
<pdfrwt beam="2">  1        2 0.99229955E+00 0.14964631E+02</pdfrwt>
<pdfrwt beam="1">  1       -2 0.99470340E+00 0.14964631E+02</pdfrwt>
<totfact>-0.14846921E-13</totfact>
</mgrwt>
</event>
<event>
 4    1 -0.5010510E-019  0.1495067E+02  0.7818608E-02  0.1869578E+00
         -2   -1    0    0    0  501 -0.00000000000E+00  0.00000000000E+00  0.11986664804E+03  0.11986664807E+03  0.25500000000E-02 0. -1.
          2   -1    0    0  501    0  0.00000000000E+00 -0.00000000000E+00 -0.46618643760E+00  0.46619341169E+00  0.25500000000E-02 0.  1.
         31    1    1    2    0    0  0.24565420999E-03  0.30440879234E+00  0.64317075648E+02  0.64747492698E+02  0.74470750000E+01 0. -1.
        -31    1    1    2    0    0 -0.24565420999E-03 -0.30440879234E+00  0.55083385953E+02  0.55585348779E+02  0.74470750000E+01 0.  1.
<mgrwt>
<rscale>  0 0.14950669E+02</rscale>
<asrwt>0</asrwt>
<pdfrwt beam="2">  1        2 0.99015744E+00 0.14950669E+02</pdfrwt>
<pdfrwt beam="1">  1       -2 0.99499613E+00 0.14950669E+02</pdfrwt>
<totfact>-0.17593596E-13</totfact>
</mgrwt>
</event>
<event>
 4    1 -0.5010510E-019  0.1490479E+02  0.7818608E-02  0.1870988E+00
          2   -1    0    0  501    0  0.00000000000E+00  0.00000000000E+00  0.11893276080E+03  0.11893276082E+03  0.25500000000E-02 0.  1.
         -2   -1    0    0    0  501 -0.00000000000E+00 -0.00000000000E+00 -0.46696774994E+00  0.46697471236E+00  0.25500000000E-02 0. -1.
         31    1    1    2    0    0  0.25966994814E+00 -0.77657364950E-01  0.58623031490E+02  0.59094773088E+02  0.74470750000E+01 0. -1.
        -31    1    1    2    0    0 -0.25966994814E+00  0.77657364950E-01  0.59842761557E+02  0.60304962449E+02  0.74470750000E+01 0. -1.
<mgrwt>
<rscale>  0 0.14904789E+02</rscale>
<asrwt>0</asrwt>
<pdfrwt beam="1">  1        2 0.98728055E+00 0.14904789E+02</pdfrwt>
<pdfrwt beam="2">  1       -2 0.99178022E+00 0.14904789E+02</pdfrwt>
<totfact>-0.14784424E-13</totfact>
</mgrwt>
</event>
<event>
 4    1 -0.5010510E-019  0.1491044E+02  0.7818608E-02  0.1870814E+00
         -2   -1    0    0    0  501 -0.00000000000E+00  0.00000000000E+00  0.11956396436E+03  0.11956396439E+03  0.25500000000E-02 0.  1.
          2   -1    0    0  501    0  0.00000000000E+00 -0.00000000000E+00 -0.46485502008E+00  0.46486201414E+00  0.25500000000E-02 0. -1.
         31    1    1    2    0    0 -0.17177627227E-01 -0.20183088926E+00  0.57267365191E+02  0.57749901063E+02  0.74470750000E+01 0. -1.
        -31    1    1    2    0    0  0.17177627227E-01  0.20183088926E+00  0.61831744148E+02  0.62278925338E+02  0.74470750000E+01 0.  1.
<mgrwt>
<rscale>  0 0.14910443E+02</rscale>
<asrwt>0</asrwt>
<pdfrwt beam="2">  1        2 0.98733088E+00 0.14910443E+02</pdfrwt>
<pdfrwt beam="1">  1       -2 0.99248232E+00 0.14910443E+02</pdfrwt>
<totfact>-0.18864009E-13</totfact>
</mgrwt>
</event>
<event>
 4    1 -0.5010510E-019  0.1494767E+02  0.7818608E-02  0.1869669E+00
          2   -1    0    0  501    0  0.00000000000E+00  0.00000000000E+00  0.11938079750E+03  0.11938079753E+03  0.25500000000E-02 0.  1.
         -2   -1    0    0    0  501 -0.00000000000E+00 -0.00000000000E+00 -0.46789611359E+00  0.46790306220E+00  0.25500000000E-02 0. -1.
         31    1    1    2    0    0  0.49445301864E+00  0.56887441602E-01  0.62578108304E+02  0.63021633468E+02  0.74470750000E+01 0.  1.
        -31    1    1    2    0    0 -0.49445301864E+00 -0.56887441602E-01  0.56334793082E+02  0.56827067121E+02  0.74470750000E+01 0. -1.
<mgrwt>
<rscale>  0 0.14947673E+02</rscale>
<asrwt>0</asrwt>
<pdfrwt beam="1">  1        2 0.99099291E+00 0.14947673E+02</pdfrwt>
<pdfrwt beam="2">  1       -2 0.99375881E+00 0.14947673E+02</pdfrwt>
<totfact>-0.15707196E-13</totfact>
</mgrwt>
</event>
<event>
 4    1 -0.5010510E-019  0.1495241E+02  0.7818608E-02  0.1869524E+00
          2   -1    0    0  501    0  0.00000000000E+00  0.00000000000E+00  0.11909202443E+03  0.11909202446E+03  0.25500000000E-02 0.  1.
         -2   -1    0    0    0  501 -0.00000000000E+00 -0.00000000000E+00 -0.46932828284E+00  0.46933521024E+00  0.25500000000E-02 0. -1.
         31    1    1    2    0    0 -0.47069321685E+00  0.11360302259E+00  0.62889890834E+02  0.63331127835E+02  0.74470750000E+01 0.  1.
        -31    1    1    2    0    0  0.47069321685E+00 -0.11360302259E+00  0.55732805312E+02  0.56230231831E+02  0.74470750000E+01 0.  1.
<mgrwt>
<rscale>  0 0.14952414E+02</rscale>
<asrwt>0</asrwt>
<pdfrwt beam="1">  1        2 0.98861697E+00 0.14952414E+02</pdfrwt>
<pdfrwt beam="2">  1       -2 0.99677915E+00 0.14952414E+02</pdfrwt>
<totfact>-0.17330252E-13</totfact>
</mgrwt>
</event>
<event>
 4    1 -0.5010510E-019  0.1493244E+02  0.7818608E-02  0.1870137E+00
         -2   -1    0    0    0  501 -0.00000000000E+00  0.00000000000E+00  0.12010534284E+03  0.12010534286E+03  0.25500000000E-02 0. -1.
          2   -1    0    0  501    0  0.00000000000E+00 -0.00000000000E+00 -0.46412629353E+00  0.46413329858E+00  0.25500000000E-02 0.  1.
         31    1    1    2    0    0 -0.40902598187E+00 -0.31400012359E+00  0.60952373164E+02  0.61407789560E+02  0.74470750000E+01 0. -1.
        -31    1    1    2    0    0  0.40902598187E+00  0.31400012359E+00  0.58688843380E+02  0.59161686603E+02  0.74470750000E+01 0.  1.
<mgrwt>
<rscale>  0 0.14932444E+02</rscale>
<asrwt>0</asrwt>
<pdfrwt beam="2">  1        2 0.98580629E+00 0.14932444E+02</pdfrwt>
<pdfrwt beam="1">  1       -2 0.99695279E+00 0.14932444E+02</pdfrwt>
<totfact>-0.24706114E-13</totfact>
</mgrwt>
</event>
<event>
 4    1 -0.5010510E-019  0.1501747E+02  0.7818608E-02  0.1867536E+00
         -2   -1    0    0    0  501 -0.00000000000E+00  0.00000000000E+00  0.12014860850E+03  0.12014860853E+03  0.25500000000E-02 0.  1.
          2   -1    0    0  501    0  0.00000000000E+00 -0.00000000000E+00 -0.46925800264E+00  0.46926493108E+00  0.25500000000E-02 0. -1.
         31    1    1    2    0    0 -0.72282686326E+00 -0.22132666656E+00  0.64596294490E+02  0.65028544902E+02  0.74470750000E+01 0.  1.
        -31    1    1    2    0    0  0.72282686326E+00  0.22132666656E+00  0.55083056010E+02  0.55589328559E+02  0.74470750000E+01 0. -1.
<mgrwt>
<rscale>  0 0.15017472E+02</rscale>
<asrwt>0</asrwt>
<pdfrwt beam="2">  1        2 0.99666488E+00 0.15017472E+02</pdfrwt>
<pdfrwt beam="1">  1       -2 0.99735297E+00 0.15017472E+02</pdfrwt>
<totfact>-0.69473205E-14</totfact>
</mgrwt>
</event>
<event>
 4    1 -0.5010510E-019  0.1491005E+02  0.7818608E-02  0.1870826E+00
          2   -1    0    0  501    0  0.00000000000E+00  0.00000000000E+00  0.11859377478E+03  0.11859377481E+03  0.25500000000E-02 0. -1.
         -2   -1    0    0    0  501 -0.00000000000E+00 -0.00000000000E+00 -0.46863292153E+00  0.46863985922E+00  0.25500000000E-02 0.  1.
         31    1    1    2    0    0 -0.22539675877E-02  0.29645073150E+00  0.57666895524E+02  0.58146518843E+02  0.74470750000E+01 0.  1.
        -31    1    1    2    0    0  0.22539675877E-02 -0.29645073150E+00  0.60458246338E+02  0.60915895828E+02  0.74470750000E+01 0. -1.
<mgrwt>
<rscale>  0 0.14910045E+02</rscale>
<asrwt>0</asrwt>
<pdfrwt beam="1">  1        2 0.98449135E+00 0.14910045E+02</pdfrwt>
<pdfrwt beam="2">  1       -2 0.99529174E+00 0.14910045E+02</pdfrwt>
<totfact>-0.37356947E-13</totfact>
</mgrwt>
</event>
<event>
 4    1  0.5010510E-019  0.1495057E+02  0.7818608E-02  0.1869581E+00
          2   -1    0    0  501    0  0.00000000000E+00  0.00000000000E+00  0.12007860892E+03  0.12007860895E+03  0.25500000000E-02 0.  1.
         -2   -1    0    0    0  501 -0.00000000000E+00 -0.00000000000E+00 -0.46535709006E+00  0.46536407658E+00  0.25500000000E-02 0. -1.
         31    1    1    2    0    0 -0.63093031281E+00 -0.14285402909E+00  0.59407669282E+02  0.59876110227E+02  0.74470750000E+01 0. -1.
        -31    1    1    2    0    0  0.63093031281E+00  0.14285402909E+00  0.60205582553E+02  0.60667862802E+02  0.74470750000E+01 0. -1.
<mgrwt>
<rscale>  0 0.14950566E+02</rscale>
<asrwt>0</asrwt>
<pdfrwt beam="1">  1        2 0.99674191E+00 0.14950566E+02</pdfrwt>
<pdfrwt beam="2">  1       -2 0.98840953E+00 0.14950566E+02</pdfrwt>
<totfact> 0.91368966E-14</totfact>
</mgrwt>
</event>
<event>
 4    1 -0.5010510E-019  0.1497642E+02  0.7818608E-02  0.1868789E+00
         -2   -1    0    0    0  501 -0.00000000000E+00  0.00000000000E+00  0.11981430579E+03  0.11981430582E+03  0.25500000000E-02 0.  1.
          2   -1    0    0  501    0  0.00000000000E+00 -0.00000000000E+00 -0.46799787428E+00  0.46800482137E+00  0.25500000000E-02 0. -1.
         31    1    1    2    0    0 -0.53486230167E+00 -0.19749884981E+00  0.63992627237E+02  0.64427015686E+02  0.74470750000E+01 0.  1.
        -31    1    1    2    0    0  0.53486230167E+00  0.19749884981E+00  0.55353680682E+02  0.55855294955E+02  0.74470750000E+01 0. -1.
<mgrwt>
<rscale>  0 0.14976416E+02</rscale>
<asrwt>0</asrwt>
<pdfrwt beam="2">  1        2 0.99398813E+00 0.14976416E+02</pdfrwt>
<pdfrwt beam="1">  1       -2 0.99457830E+00 0.14976416E+02</pdfrwt>
<totfact>-0.13091041E-13</totfact>
</mgrwt>
</event>
<event>
 4    1  0.5010510E-019  0.1492109E+02  0.7818608E-02  0.1870486E+00
          2   -1    0    0  501    0  0.00000000000E+00  0.00000000000E+00  0.12019120189E+03  0.12019120191E+03  0.25500000000E-02 0. -1.
         -2   -1    0    0    0  501 -0.00000000000E+00 -0.00000000000E+00 -0.46308949029E+00  0.46309651102E+00  0.25500000000E-02 0.  1.
         31    1    1    2    0    0 -0.18759707501E+00 -0.32927065783E+00  0.57930640114E+02  0.58408574729E+02  0.74470750000E+01 0.  1.
        -31    1    1    2    0    0  0.18759707501E+00  0.32927065783E+00  0.61797472284E+02  0.62245723697E+02  0.74470750000E+01 0.  1.
<mgrwt>
<rscale>  0 0.14921087E+02</rscale>
<asrwt>0</asrwt>
<pdfrwt beam="1">  1        2 0.99765416E+00 0.14921087E+02</pdfrwt>
<pdfrwt beam="2">  1       -2 0.98361531E+00 0.14921087E+02</pdfrwt>
<totfact> 0.42934045E-13</totfact>
</mgrwt>
</event>
<event>
 4    1  0.5010510E-019  0.1490392E+02  0.7818608E-02  0.1871015E+00
         -2   -1    0    0    0  501 -0.00000000000E+00  0.00000000000E+00  0.11819979367E+03  0.11819979370E+03  0.25500000000E-02 0.  1.
          2   -1    0    0  501    0  0.00000000000E+00 -0.00000000000E+00 -0.46980842757E+00  0.46981534790E+00  0.25500000000E-02 0. -1.
         31    1    1    2    0    0 -0.17948618218E+00  0.17611500134E+00  0.58088366691E+02  0.58564327903E+02  0.74470750000E+01 0.  1.
        -31    1    1    2    0    0  0.17948618218E+00 -0.17611500134E+00  0.59641618552E+02  0.60105281143E+02  0.74470750000E+01 0.  1.
<mgrwt>
<rscale>  0 0.14903915E+02</rscale>
<asrwt>0</asrwt>
<pdfrwt beam="2">  1        2 0.99776529E+00 0.14903915E+02</pdfrwt>
<pdfrwt beam="1">  1       -2 0.98124336E+00 0.14903915E+02</pdfrwt>
<totfact> 0.67882126E-13</totfact>
</mgrwt>
</event>
<event>
 4    1 -0.5010510E-019  0.1490677E+02  0.7818608E-02  0.1870927E+00
         -2   -1    0    0    0  501 -0.00000000000E+00  0.00000000000E+00  0.11996655357E+03  0.11996655360E+03  0.25500000000E-02 0. -1.
          2   -1    0    0  501    0  0.00000000000E+00 -0.00000000000E+00 -0.46306648649E+00  0.46307350756E+00  0.25500000000E-02 0.  1.
         31    1    1    2    0    0  0.61408429445E-03 -0.19860111715E+00  0.57864919173E+02  0.58342499430E+02  0.74470750000E+01 0.  1.
        -31    1    1    2    0    0 -0.61408429445E-03  0.19860111715E+00  0.61638567910E+02  0.62087127674E+02  0.74470750000E+01 0.  1.
<mgrwt>
<rscale>  0 0.14906766E+02</rscale>
<asrwt>0</asrwt>
<pdfrwt beam="2">  1        2 0.98355957E+00 0.14906766E+02</pdfrwt>
<pdfrwt beam="1">  1       -2 0.99579642E+00 0.14906766E+02</pdfrwt>
<totfact>-0.42183904E-13</totfact>
</mgrwt>
</event>
<event>
 4    1 -0.5010510E-019  0.1494421E+02  0.7818608E-02  0.1869776E+00
          2   -1    0    0  501    0  0.00000000000E+00  0.00000000000E+00  0.11948827881E+03  0.11948827884E+03  0.25500000000E-02 0. -1.
         -2   -1    0    0    0  501 -0.00000000000E+00 -0.00000000000E+00 -0.46725844148E+00  0.46726539957E+00  0.25500000000E-02 0.  1.
         31    1    1    2    0    0  0.19749788408E+00  0.44577824971E+00  0.62467155764E+02  0.62911383699E+02  0.74470750000E+01 0. -1.
        -31    1    1    2    0    0 -0.19749788408E+00 -0.44577824971E+00  0.56553864603E+02  0.57044160536E+02  0.74470750000E+01 0.  1.
<mgrwt>
<rscale>  0 0.14944206E+02</rscale>
<asrwt>0</asrwt>
<pdfrwt beam="1">  1        2 0.99187637E+00 0.14944206E+02</pdfrwt>
<pdfrwt beam="2">  1       -2 0.99241325E+00 0.14944206E+02</pdfrwt>
<totfact>-0.11581621E-13</totfact>
</mgrwt>
</event>
<event>
 4    1  0.5010510E-019  0.1489800E+02  0.7818608E-02  0.1871197E+00
          2   -1    0    0  501    0  0.00000000000E+00  0.00000000000E+00  0.11978924618E+03  0.11978924621E+03  0.25500000000E-02 0. -1.
         -2   -1    0    0    0  501 -0.00000000000E+00 -0.00000000000E+00 -0.46320657624E+00  0.46321359519E+00  0.25500000000E-02 0.  1.
         31    1    1    2    0    0  0.80106511135E-01  0.10805806811E+00  0.60492900625E+02  0.60949717355E+02  0.74470750000E+01 0. -1.
        -31    1    1    2    0    0 -0.80106511135E-01 -0.10805806811E+00  0.58833138979E+02  0.59302742447E+02  0.74470750000E+01 0.  1.
<mgrwt>
<rscale>  0 0.14897999E+02</rscale>
<asrwt>0</asrwt>
<pdfrwt beam="1">  1        2 0.99433147E+00 0.14897999E+02</pdfrwt>
<pdfrwt beam="2">  1       -2 0.98385037E+00 0.14897999E+02</pdfrwt>
<totfact> 0.69716145E-13</totfact>
</mgrwt>
</event>
<event>
 4    1 -0.5010510E-019  0.1494848E+02  0.7818608E-02  0.1869645E+00
          2   -1    0    0  501    0  0.00000000000E+00  0.00000000000E+00  0.11965936410E+03  0.11965936412E+03  0.25500000000E-02 0.  1.
         -2   -1    0    0    0  501 -0.00000000000E+00 -0.00000000000E+00 -0.46685749627E+00  0.46686446033E+00  0.25500000000E-02 0. -1.
         31    1    1    2    0    0  0.62477708747E+00  0.12239642315E+00  0.59645590480E+02  0.60112067981E+02  0.74470750000E+01 0.  1.
        -31    1    1    2    0    0 -0.62477708747E+00 -0.12239642315E+00  0.59546916122E+02  0.60014160603E+02  0.74470750000E+01 0. -1.
<mgrwt>
<rscale>  0 0.14948484E+02</rscale>
<asrwt>0</asrwt>
<pdfrwt beam="1">  1        2 0.99328771E+00 0.14948484E+02</pdfrwt>
<pdfrwt beam="2">  1       -2 0.99157052E+00 0.14948484E+02</pdfrwt>
<totfact>-0.74518679E-14</totfact>
</mgrwt>
</event>
<event>
 4    1 -0.5010510E-019  0.1492206E+02  0.7818608E-02  0.1870456E+00
         -2   -1    0    0    0  501 -0.00000000000E+00  0.00000000000E+00  0.12009226201E+03  0.12009226204E+03  0.25500000000E-02 0. -1.
          2   -1    0    0  501    0  0.00000000000E+00 -0.00000000000E+00 -0.46353121569E+00  0.46353822973E+00  0.25500000000E-02 0.  1.
         31    1    1    2    0    0 -0.35632504900E+00  0.13824238138E+00  0.61824926513E+02  0.62273000111E+02  0.74470750000E+01 0. -1.
        -31    1    1    2    0    0  0.35632504900E+00 -0.13824238138E+00  0.57803804285E+02  0.58282800159E+02  0.74470750000E+01 0.  1.
<mgrwt>
<rscale>  0 0.14922056E+02</rscale>
<asrwt>0</asrwt>
<pdfrwt beam="2">  1        2 0.98454681E+00 0.14922056E+02</pdfrwt>
<pdfrwt beam="1">  1       -2 0.99683971E+00 0.14922056E+02</pdfrwt>
<totfact>-0.30944410E-13</totfact>
</mgrwt>
</event>
<event>
 4    1  0.5010510E-019  0.1494363E+02  0.7818608E-02  0.1869794E+00
         -2   -1    0    0    0  501 -0.00000000000E+00  0.00000000000E+00  0.11887023208E+03  0.11887023211E+03  0.25500000000E-02 0. -1.
          2   -1    0    0  501    0  0.00000000000E+00 -0.00000000000E+00 -0.46965138698E+00  0.46965830961E+00  0.25500000000E-02 0.  1.
         31    1    1    2    0    0 -0.37017273276E+00  0.89381314536E-01  0.62980305659E+02  0.63420208481E+02  0.74470750000E+01 0. -1.
        -31    1    1    2    0    0  0.37017273276E+00 -0.89381314536E-01  0.55420275037E+02  0.55919681938E+02  0.74470750000E+01 0. -1.
<mgrwt>
<rscale>  0 0.14943625E+02</rscale>
<asrwt>0</asrwt>
<pdfrwt beam="2">  1        2 0.99745536E+00 0.14943625E+02</pdfrwt>
<pdfrwt beam="1">  1       -2 0.98678571E+00 0.14943625E+02</pdfrwt>
<totfact> 0.17644913E-13</totfact>
</mgrwt>
</event>
<event>
 4    1 -0.5010510E-019  0.1492694E+02  0.7818608E-02  0.1870306E+00
          2   -1    0    0  501    0  0.00000000000E+00  0.00000000000E+00  0.11885578917E+03  0.11885578920E+03  0.25500000000E-02 0. -1.
         -2   -1    0    0    0  501 -0.00000000000E+00 -0.00000000000E+00 -0.46865994295E+00  0.46866688023E+00  0.25500000000E-02 0.  1.
         31    1    1    2    0    0  0.21358898318E-01  0.47538380833E+00  0.58121342194E+02  0.58598428225E+02  0.74470750000E+01 0.  1.
        -31    1    1    2    0    0 -0.21358898318E-01 -0.47538380833E+00  0.60265787032E+02  0.60726027851E+02  0.74470750000E+01 0. -1.
<mgrwt>
<rscale>  0 0.14926937E+02</rscale>
<asrwt>0</asrwt>
<pdfrwt beam="1">  1        2 0.98665809E+00 0.14926937E+02</pdfrwt>
<pdfrwt beam="2">  1       -2 0.99535754E+00 0.14926937E+02</pdfrwt>
<totfact>-0.26498242E-13</totfact>
</mgrwt>
</event>
<event>
 4    1 -0.5010510E-019  0.1492165E+02  0.7818608E-02  0.1870469E+00
         -2   -1    0    0    0  501 -0.00000000000E+00  0.00000000000E+00  0.12017345263E+03  0.12017345266E+03  0.25500000000E-02 0. -1.
          2   -1    0    0  501    0  0.00000000000E+00 -0.00000000000E+00 -0.46319262937E+00  0.46319964854E+00  0.25500000000E-02 0.  1.
         31    1    1    2    0    0 -0.14561831937E-01 -0.30888320107E+00  0.57181857037E+02  0.57665581773E+02  0.74470750000E+01 0. -1.
        -31    1    1    2    0    0  0.14561831937E-01  0.30888320107E+00  0.62528402967E+02  0.62971070537E+02  0.74470750000E+01 0. -1.
<mgrwt>
<rscale>  0 0.14921646E+02</rscale>
<asrwt>0</asrwt>
<pdfrwt beam="2">  1        2 0.98383298E+00 0.14921646E+02</pdfrwt>
<pdfrwt beam="1">  1       -2 0.99750825E+00 0.14921646E+02</pdfrwt>
<totfact>-0.29634679E-13</totfact>
</mgrwt>
</event>
<event>
 4    1  0.5010510E-019  0.1494893E+02  0.7818608E-02  0.1869631E+00
         -2   -1    0    0    0  501 -0.00000000000E+00  0.00000000000E+00  0.11909576001E+03  0.11909576004E+03  0.25500000000E-02 0. -1.
          2   -1    0    0  501    0  0.00000000000E+00 -0.00000000000E+00 -0.46909483577E+00  0.46910176662E+00  0.25500000000E-02 0.  1.
         31    1    1    2    0    0  0.16327852468E+00  0.43529571930E+00  0.62823027530E+02  0.63264586115E+02  0.74470750000E+01 0. -1.
        -31    1    1    2    0    0 -0.16327852468E+00 -0.43529571930E+00  0.55803637646E+02  0.56300275690E+02  0.74470750000E+01 0.  1.
<mgrwt>
<rscale>  0 0.14948929E+02</rscale>
<asrwt>0</asrwt>
<pdfrwt beam="2">  1        2 0.99628542E+00 0.14948929E+02</pdfrwt>
<pdfrwt beam="1">  1       -2 0.98864593E+00 0.14948929E+02</pdfrwt>
<totfact> 0.83523475E-14</totfact>
</mgrwt>
</event>
<event>
 4    1  0.5010510E-019  0.1492891E+02  0.7818608E-02  0.1870246E+00
         -2   -1    0    0    0  501 -0.00000000000E+00  0.00000000000E+00  0.11885440833E+03  0.11885440836E+03  0.25500000000E-02 0. -1.
          2   -1    0    0  501    0  0.00000000000E+00 -0.00000000000E+00 -0.46878951585E+00  0.46879645121E+00  0.25500000000E-02 0.  1.
         31    1    1    2    0    0  0.53310551421E-01  0.33014047245E+00  0.62260978918E+02  0.62705663672E+02  0.74470750000E+01 0. -1.
        -31    1    1    2    0    0 -0.53310551421E-01 -0.33014047245E+00  0.56124639897E+02  0.56617541136E+02  0.74470750000E+01 0.  1.
<mgrwt>
<rscale>  0 0.14928914E+02</rscale>
<asrwt>0</asrwt>
<pdfrwt beam="2">  1        2 0.99563160E+00 0.14928914E+02</pdfrwt>
<pdfrwt beam="1">  1       -2 0.98664774E+00 0.14928914E+02</pdfrwt>
<totfact> 0.26318325E-13</totfact>
</mgrwt>
</event>
<event>
 4    1 -0.5010510E-019  0.1489686E+02  0.7818608E-02  0.1871232E+00
         -2   -1    0    0    0  501 -0.00000000000E+00  0.00000000000E+00  0.12012440695E+03  0.12012440698E+03  0.25500000000E-02 0. -1.
          2   -1    0    0  501    0  0.00000000000E+00 -0.00000000000E+00 -0.46184366436E+00  0.46185070402E+00  0.25500000000E-02 0.  1.
         31    1    1    2    0    0  0.17194799545E-01 -0.10065916250E+00  0.60631326370E+02  0.61087045201E+02  0.74470750000E+01 0. -1.
        -31    1    1    2    0    0 -0.17194799545E-01  0.10065916250E+00  0.59031236921E+02  0.59499212485E+02  0.74470750000E+01 0.  1.
<mgrwt>
<rscale>  0 0.14896862E+02</rscale>
<asrwt>0</asrwt>
<pdfrwt beam="2">  1        2 0.98097722E+00 0.14896862E+02</pdfrwt>
<pdfrwt beam="1">  1       -2 0.99709155E+00 0.14896862E+02</pdfrwt>
<totfact>-0.53437503E-13</totfact>
</mgrwt>
</event>
<event>
 4    1  0.5010510E-019  0.1490221E+02  0.7818608E-02  0.1871067E+00
         -2   -1    0    0    0  501 -0.00000000000E+00  0.00000000000E+00  0.11829899290E+03  0.11829899292E+03  0.25500000000E-02 0.  1.
          2   -1    0    0  501    0  0.00000000000E+00 -0.00000000000E+00 -0.46930680844E+00  0.46931373616E+00  0.25500000000E-02 0. -1.
         31    1    1    2    0    0 -0.60497306774E-01 -0.23552419462E+00  0.58678661045E+02  0.59149837867E+02  0.74470750000E+01 0. -1.
        -31    1    1    2    0    0  0.60497306774E-01  0.23552419462E+00  0.59151025042E+02  0.59618468793E+02  0.74470750000E+01 0. -1.
<mgrwt>
<rscale>  0 0.14902206E+02</rscale>
<asrwt>0</asrwt>
<pdfrwt beam="2">  1        2 0.99670750E+00 0.14902206E+02</pdfrwt>
<pdfrwt beam="1">  1       -2 0.98205946E+00 0.14902206E+02</pdfrwt>
<totfact> 0.76133986E-13</totfact>
</mgrwt>
</event>
<event>
 4    1 -0.5010510E-019  0.1495690E+02  0.7818608E-02  0.1869386E+00
         -2   -1    0    0    0  501 -0.00000000000E+00  0.00000000000E+00  0.12038699704E+03  0.12038699707E+03  0.25500000000E-02 0. -1.
          2   -1    0    0  501    0  0.00000000000E+00 -0.00000000000E+00 -0.46455855903E+00  0.46456555756E+00  0.25500000000E-02 0.  1.
         31    1    1    2    0    0  0.25517661967E+00 -0.44371327492E+00  0.56291164028E+02  0.56783942011E+02  0.74470750000E+01 0.  1.
        -31    1    1    2    0    0 -0.25517661967E+00  0.44371327492E+00  0.63631274457E+02  0.64067620618E+02  0.74470750000E+01 0. -1.
<mgrwt>
<rscale>  0 0.14956903E+02</rscale>
<asrwt>0</asrwt>
<pdfrwt beam="2">  1        2 0.98672977E+00 0.14956903E+02</pdfrwt>
<pdfrwt beam="1">  1       -2 0.99928528E+00 0.14956903E+02</pdfrwt>
<totfact>-0.63160627E-14</totfact>
</mgrwt>
</event>
<event>
 4    1  0.5010510E-019  0.1490716E+02  0.7818608E-02  0.1870915E+00
         -2   -1    0    0    0  501 -0.00000000000E+00  0.00000000000E+00  0.11859251675E+03  0.11859251678E+03  0.25500000000E-02 0.  1.
          2   -1    0    0  501    0  0.00000000000E+00 -0.00000000000E+00 -0.46845681036E+00  0.46846375065E+00  0.25500000000E-02 0. -1.
         31    1    1    2    0    0 -0.25754701290E+00  0.16307884989E+00  0.58554650008E+02  0.59027103002E+02  0.74470750000E+01 0. -1.
        -31    1    1    2    0    0  0.25754701290E+00 -0.16307884989E+00  0.59569409934E+02  0.60033877528E+02  0.74470750000E+01 0.  1.
<mgrwt>
<rscale>  0 0.14907164E+02</rscale>
<asrwt>0</asrwt>
<pdfrwt beam="2">  1        2 0.99491914E+00 0.14907164E+02</pdfrwt>
<pdfrwt beam="1">  1       -2 0.98447949E+00 0.14907164E+02</pdfrwt>
<totfact> 0.56325691E-13</totfact>
</mgrwt>
</event>
<event>
 4    1  0.5010510E-019  0.1494827E+02  0.7818608E-02  0.1869651E+00
          2   -1    0    0  501    0  0.00000000000E+00  0.00000000000E+00  0.12008302347E+03  0.12008302350E+03  0.25500000000E-02 0. -1.
         -2   -1    0    0    0  501 -0.00000000000E+00 -0.00000000000E+00 -0.46519704931E+00  0.46520403823E+00  0.25500000000E-02 0.  1.
         31    1    1    2    0    0 -0.21664969407E+00 -0.44090241638E+00  0.56558736146E+02  0.57049021836E+02  0.74470750000E+01 0.  1.
        -31    1    1    2    0    0  0.21664969407E+00  0.44090241638E+00  0.63059090274E+02  0.63499205698E+02  0.74470750000E+01 0. -1.
<mgrwt>
<rscale>  0 0.14948270E+02</rscale>
<asrwt>0</asrwt>
<pdfrwt beam="1">  1        2 0.99677709E+00 0.14948270E+02</pdfrwt>
<pdfrwt beam="2">  1       -2 0.98807106E+00 0.14948270E+02</pdfrwt>
<totfact> 0.11241979E-13</totfact>
</mgrwt>
</event>
<event>
 4    1 -0.5010510E-019  0.1491247E+02  0.7818608E-02  0.1870751E+00
          2   -1    0    0  501    0  0.00000000000E+00  0.00000000000E+00  0.11875557239E+03  0.11875557241E+03  0.25500000000E-02 0. -1.
         -2   -1    0    0    0  501 -0.00000000000E+00 -0.00000000000E+00 -0.46814641891E+00  0.46815336380E+00  0.25500000000E-02 0.  1.
         31    1    1    2    0    0  0.25440714715E+00  0.26579059479E+00  0.59411019756E+02  0.59877070420E+02  0.74470750000E+01 0. -1.
        -31    1    1    2    0    0 -0.25440714715E+00 -0.26579059479E+00  0.58876406211E+02  0.59346655357E+02  0.74470750000E+01 0. -1.
<mgrwt>
<rscale>  0 0.14912466E+02</rscale>
<asrwt>0</asrwt>
<pdfrwt beam="1">  1        2 0.98582518E+00 0.14912466E+02</pdfrwt>
<pdfrwt beam="2">  1       -2 0.99426790E+00 0.14912466E+02</pdfrwt>
<totfact>-0.30233093E-13</totfact>
</mgrwt>
</event>
<event>
 4    1 -0.5010510E-019  0.1497986E+02  0.7818608E-02  0.1868684E+00
         -2   -1    0    0    0  501 -0.00000000000E+00  0.00000000000E+00  0.12020616037E+03  0.12020616040E+03  0.25500000000E-02 0.  1.
          2   -1    0    0  501    0  0.00000000000E+00 -0.00000000000E+00 -0.46668670901E+00  0.46669367562E+00  0.25500000000E-02 0. -1.
         31    1    1    2    0    0  0.19627377598E+00 -0.13895742538E+00  0.53722667810E+02  0.54236904366E+02  0.74470750000E+01 0. -1.
        -31    1    1    2    0    0 -0.19627377598E+00  0.13895742538E+00  0.66016805851E+02  0.66435949706E+02  0.74470750000E+01 0.  1.
<mgrwt>
<rscale>  0 0.14979858E+02</rscale>
<asrwt>0</asrwt>
<pdfrwt beam="2">  1        2 0.99122671E+00 0.14979858E+02</pdfrwt>
<pdfrwt beam="1">  1       -2 0.99780759E+00 0.14979858E+02</pdfrwt>
<totfact>-0.10262012E-13</totfact>
</mgrwt>
</event>
<event>
 4    1 -0.5010510E-019  0.1504285E+02  0.7818608E-02  0.1866764E+00
          2   -1    0    0  501    0  0.00000000000E+00  0.00000000000E+00  0.12032471261E+03  0.12032471264E+03  0.25500000000E-02 0.  1.
         -2   -1    0    0    0  501 -0.00000000000E+00 -0.00000000000E+00 -0.47015606356E+00  0.47016297877E+00  0.25500000000E-02 0. -1.
         31    1    1    2    0    0  0.48673392326E+00  0.10920096340E+00  0.67391565354E+02  0.67803619680E+02  0.74470750000E+01 0.  1.
        -31    1    1    2    0    0 -0.48673392326E+00 -0.10920096340E+00  0.52462991193E+02  0.52991255936E+02  0.74470750000E+01 0. -1.
<mgrwt>
<rscale>  0 0.15042847E+02</rscale>
<asrwt>0</asrwt>
<pdfrwt beam="1">  1        2 0.99881655E+00 0.15042847E+02</pdfrwt>
<pdfrwt beam="2">  1       -2 0.99857052E+00 0.15042847E+02</pdfrwt>
<totfact>-0.19013907E-14</totfact>
</mgrwt>
</event>
<event>
 4    1 -0.5010510E-019  0.1498410E+02  0.7818608E-02  0.1868554E+00
         -2   -1    0    0    0  501 -0.00000000000E+00  0.00000000000E+00  0.11944351151E+03  0.11944351154E+03  0.25500000000E-02 0.  1.
          2   -1    0    0  501    0  0.00000000000E+00 -0.00000000000E+00 -0.46993251182E+00  0.46993943031E+00  0.25500000000E-02 0. -1.
         31    1    1    2    0    0 -0.72421102980E+00  0.34390953894E+00  0.58121057020E+02  0.58601697506E+02  0.74470750000E+01 0. -1.
        -31    1    1    2    0    0  0.72421102980E+00 -0.34390953894E+00  0.60852521976E+02  0.61311753460E+02  0.74470750000E+01 0.  1.
<mgrwt>
<rscale>  0 0.14984099E+02</rscale>
<asrwt>0</asrwt>
<pdfrwt beam="2">  1        2 0.99806892E+00 0.14984099E+02</pdfrwt>
<pdfrwt beam="1">  1       -2 0.99152831E+00 0.14984099E+02</pdfrwt>
<totfact>-0.33596365E-14</totfact>
</mgrwt>
</event>
<event>
 4    1  0.5010510E-019  0.1490644E+02  0.7818608E-02  0.1870937E+00
         -2   -1    0    0    0  501 -0.00000000000E+00  0.00000000000E+00  0.11903965623E+03  0.11903965625E+03  0.25500000000E-02 0. -1.
          2   -1    0    0  501    0  0.00000000000E+00 -0.00000000000E+00 -0.46665153842E+00  0.46665850556E+00  0.25500000000E-02 0.  1.
         31    1    1    2    0    0  0.10084855106E+00 -0.27889381861E+00  0.59766082999E+02  0.60228992647E+02  0.74470750000E+01 0. -1.
        -31    1    1    2    0    0 -0.10084855106E+00  0.27889381861E+00  0.58806921688E+02  0.59277322111E+02  0.74470750000E+01 0. -1.
<mgrwt>
<rscale>  0 0.14906436E+02</rscale>
<asrwt>0</asrwt>
<pdfrwt beam="2">  1        2 0.99111474E+00 0.14906436E+02</pdfrwt>
<pdfrwt beam="1">  1       -2 0.98816182E+00 0.14906436E+02</pdfrwt>
<totfact> 0.18669932E-13</totfact>
</mgrwt>
</event>
<event>
 4    1 -0.5010510E-019  0.1496705E+02  0.7818608E-02  0.1869076E+00
         -2   -1    0    0    0  501 -0.00000000000E+00  0.00000000000E+00  0.12039133153E+03  0.12039133156E+03  0.25500000000E-02 0. -1.
          2   -1    0    0  501    0  0.00000000000E+00 -0.00000000000E+00 -0.46517259593E+00  0.46517958522E+00  0.25500000000E-02 0.  1.
         31    1    1    2    0    0  0.61104329180E+00 -0.38058275011E+00  0.61265833872E+02  0.61720981386E+02  0.74470750000E+01 0.  1.
        -31    1    1    2    0    0 -0.61104329180E+00  0.38058275011E+00  0.58660325061E+02  0.59135529755E+02  0.74470750000E+01 0. -1.
<mgrwt>
<rscale>  0 0.14967053E+02</rscale>
<asrwt>0</asrwt>
<pdfrwt beam="2">  1        2 0.98802909E+00 0.14967053E+02</pdfrwt>
<pdfrwt beam="1">  1       -2 0.99932619E+00 0.14967053E+02</pdfrwt>
<totfact>-0.50011207E-14</totfact>
</mgrwt>
</event>
<event>
 4    1 -0.5010510E-019  0.1500754E+02  0.7818608E-02  0.1867839E+00
         -2   -1    0    0    0  501 -0.00000000000E+00  0.00000000000E+00  0.12033304343E+03  0.12033304346E+03  0.25500000000E-02 0.  1.
          2   -1    0    0  501    0  0.00000000000E+00 -0.00000000000E+00 -0.46791894783E+00  0.46792589610E+00  0.25500000000E-02 0. -1.
         31    1    1    2    0    0  0.40279005770E+00  0.48479889277E+00  0.54530872679E+02  0.55040641993E+02  0.74470750000E+01 0. -1.
        -31    1    1    2    0    0 -0.40279005770E+00 -0.48479889277E+00  0.65334251806E+02  0.65760327363E+02  0.74470750000E+01 0. -1.
<mgrwt>
<rscale>  0 0.15007536E+02</rscale>
<asrwt>0</asrwt>
<pdfrwt beam="2">  1        2 0.99383782E+00 0.15007536E+02</pdfrwt>
<pdfrwt beam="1">  1       -2 0.99886693E+00 0.15007536E+02</pdfrwt>
<totfact>-0.48226946E-14</totfact>
</mgrwt>
</event>
<event>
 4    1 -0.5010510E-019  0.1493147E+02  0.7818608E-02  0.1870167E+00
         -2   -1    0    0    0  501 -0.00000000000E+00  0.00000000000E+00  0.12009974156E+03  0.12009974159E+03  0.25500000000E-02 0.  1.
          2   -1    0    0  501    0  0.00000000000E+00 -0.00000000000E+00 -0.46408753363E+00  0.46409453926E+00  0.25500000000E-02 0. -1.
         31    1    1    2    0    0  0.28813525278E+00  0.44163779164E+00  0.59938910698E+02  0.60402069564E+02  0.74470750000E+01 0. -1.
        -31    1    1    2    0    0 -0.28813525278E+00 -0.44163779164E+00  0.59696743327E+02  0.60161766561E+02  0.74470750000E+01 0. -1.
<mgrwt>
<rscale>  0 0.14931472E+02</rscale>
<asrwt>0</asrwt>
<pdfrwt beam="2">  1        2 0.98572411E+00 0.14931472E+02</pdfrwt>
<pdfrwt beam="1">  1       -2 0.99690615E+00 0.14931472E+02</pdfrwt>
<totfact>-0.25267677E-13</totfact>
</mgrwt>
</event>
<event>
 4    1 -0.5010510E-019  0.1489627E+02  0.7818608E-02  0.1871250E+00
         -2   -1    0    0    0  501 -0.00000000000E+00  0.00000000000E+00  0.11978373386E+03  0.11978373389E+03  0.25500000000E-02 0. -1.
          2   -1    0    0  501    0  0.00000000000E+00 -0.00000000000E+00 -0.46312054435E+00  0.46312756461E+00  0.25500000000E-02 0.  1.
         31    1    1    2    0    0 -0.12442264651E+00 -0.15961599478E-01  0.59727806124E+02  0.60190410251E+02  0.74470750000E+01 0. -1.
        -31    1    1    2    0    0  0.12442264651E+00  0.15961599478E-01  0.59592807193E+02  0.60056451202E+02  0.74470750000E+01 0.  1.
<mgrwt>
<rscale>  0 0.14896272E+02</rscale>
<asrwt>0</asrwt>
<pdfrwt beam="2">  1        2 0.98366817E+00 0.14896272E+02</pdfrwt>
<pdfrwt beam="1">  1       -2 0.99428518E+00 0.14896272E+02</pdfrwt>
<totfact>-0.42995029E-13</totfact>
</mgrwt>
</event>
<event>
 4    1 -0.5010510E-019  0.1499484E+02  0.7818608E-02  0.1868226E+00
          2   -1    0    0  501    0  0.00000000000E+00  0.00000000000E+00  0.11998553608E+03  0.11998553610E+03  0.25500000000E-02 0.  1.
         -2   -1    0    0    0  501 -0.00000000000E+00 -0.00000000000E+00 -0.46848044820E+00  0.46848738814E+00  0.25500000000E-02 0. -1.
         31    1    1    2    0    0  0.78368894877E+00  0.35743169467E+00  0.60579528950E+02  0.61041626614E+02  0.74470750000E+01 0.  1.
        -31    1    1    2    0    0 -0.78368894877E+00 -0.35743169467E+00  0.58937526678E+02  0.59412396878E+02  0.74470750000E+01 0.  1.
<mgrwt>
<rscale>  0 0.14994839E+02</rscale>
<asrwt>0</asrwt>
<pdfrwt beam="1">  1        2 0.99599814E+00 0.14994839E+02</pdfrwt>
<pdfrwt beam="2">  1       -2 0.99501460E+00 0.14994839E+02</pdfrwt>
<totfact>-0.10552254E-13</totfact>
</mgrwt>
</event>
<event>
 4    1 -0.5010510E-019  0.1492856E+02  0.7818608E-02  0.1870256E+00
         -2   -1    0    0    0  501 -0.00000000000E+00  0.00000000000E+00  0.11996227385E+03  0.11996227388E+03  0.25500000000E-02 0.  1.
          2   -1    0    0  501    0  0.00000000000E+00 -0.00000000000E+00 -0.46443835804E+00  0.46444535838E+00  0.25500000000E-02 0. -1.
         31    1    1    2    0    0 -0.25641734120E+00  0.91377983443E-01  0.63194884049E+02  0.63632746254E+02  0.74470750000E+01 0.  1.
        -31    1    1    2    0    0  0.25641734120E+00 -0.91377983443E-01  0.56302951441E+02  0.56793972980E+02  0.74470750000E+01 0. -1.
<mgrwt>
<rscale>  0 0.14928564E+02</rscale>
<asrwt>0</asrwt>
<pdfrwt beam="2">  1        2 0.98646202E+00 0.14928564E+02</pdfrwt>
<pdfrwt beam="1">  1       -2 0.99577237E+00 0.14928564E+02</pdfrwt>
<totfact>-0.26510117E-13</totfact>
</mgrwt>
</event>
<event>
 4    1 -0.5010510E-019  0.1493913E+02  0.7818608E-02  0.1869932E+00
          2   -1    0    0  501    0  0.00000000000E+00  0.00000000000E+00  0.11883935016E+03  0.11883935019E+03  0.25500000000E-02 0. -1.
         -2   -1    0    0    0  501 -0.00000000000E+00 -0.00000000000E+00 -0.46949088044E+00  0.46949780544E+00  0.25500000000E-02 0.  1.
         31    1    1    2    0    0 -0.38900174716E-02  0.44177877346E+00  0.56193558584E+02  0.56686595735E+02  0.74470750000E+01 0. -1.
        -31    1    1    2    0    0  0.38900174716E-02 -0.44177877346E+00  0.62176300694E+02  0.62622252256E+02  0.74470750000E+01 0. -1.
<mgrwt>
<rscale>  0 0.14939131E+02</rscale>
<asrwt>0</asrwt>
<pdfrwt beam="1">  1        2 0.98652903E+00 0.14939131E+02</pdfrwt>
<pdfrwt beam="2">  1       -2 0.99711480E+00 0.14939131E+02</pdfrwt>
<totfact>-0.21357967E-13</totfact>
</mgrwt>
</event>
<event>
 4    1 -0.5010510E-019  0.1497526E+02  0.7818608E-02  0.1868824E+00
          2   -1    0    0  501    0  0.00000000000E+00  0.00000000000E+00  0.12006658682E+03  0.12006658685E+03  0.25500000000E-02 0.  1.
         -2   -1    0    0    0  501 -0.00000000000E+00 -0.00000000000E+00 -0.46694226753E+00  0.46694923033E+00  0.25500000000E-02 0. -1.
         31    1    1    2    0    0 -0.56953640450E+00 -0.44400377088E+00  0.57464984900E+02  0.57950020937E+02  0.74470750000E+01 0. -1.
        -31    1    1    2    0    0  0.56953640450E+00  0.44400377088E+00  0.62134659657E+02  0.62583515145E+02  0.74470750000E+01 0.  1.
<mgrwt>
<rscale>  0 0.14975258E+02</rscale>
<asrwt>0</asrwt>
<pdfrwt beam="1">  1        2 0.99665561E+00 0.14975258E+02</pdfrwt>
<pdfrwt beam="2">  1       -2 0.99176294E+00 0.14975258E+02</pdfrwt>
<totfact>-0.56402440E-14</totfact>
</mgrwt>
</event>
<event>
 4    1  0.5010510E-019  0.1493111E+02  0.7818608E-02  0.1870178E+00
          2   -1    0    0  501    0  0.00000000000E+00  0.00000000000E+00  0.12023912385E+03  0.12023912388E+03  0.25500000000E-02 0. -1.
         -2   -1    0    0    0  501 -0.00000000000E+00 -0.00000000000E+00 -0.46352705506E+00  0.46353406916E+00  0.25500000000E-02 0.  1.
         31    1    1    2    0    0 -0.16264242368E+00  0.47228948185E+00  0.58582394637E+02  0.59055951414E+02  0.74470750000E+01 0.  1.
        -31    1    1    2    0    0  0.16264242368E+00 -0.47228948185E+00  0.61193202161E+02  0.61646706536E+02  0.74470750000E+01 0. -1.
<mgrwt>
<rscale>  0 0.14931110E+02</rscale>
<asrwt>0</asrwt>
<pdfrwt beam="1">  1        2 0.99805403E+00 0.14931110E+02</pdfrwt>
<pdfrwt beam="2">  1       -2 0.98454263E+00 0.14931110E+02</pdfrwt>
<totfact> 0.29537355E-13</totfact>
</mgrwt>
</event>
<event>
 4    1 -0.5010510E-019  0.1496677E+02  0.7818608E-02  0.1869084E+00
         -2   -1    0    0    0  501 -0.00000000000E+00  0.00000000000E+00  0.12022730078E+03  0.12022730081E+03  0.25500000000E-02 0.  1.
          2   -1    0    0  501    0  0.00000000000E+00 -0.00000000000E+00 -0.46578945459E+00  0.46579643462E+00  0.25500000000E-02 0. -1.
         31    1    1    2    0    0 -0.73173957019E+00 -0.36630726208E-01  0.60468993442E+02  0.60930246007E+02  0.74470750000E+01 0.  1.
        -31    1    1    2    0    0  0.73173957019E+00  0.36630726208E-01  0.59292517884E+02  0.59762851235E+02  0.74470750000E+01 0.  1.
<mgrwt>
<rscale>  0 0.14966767E+02</rscale>
<asrwt>0</asrwt>
<pdfrwt beam="2">  1        2 0.98932903E+00 0.14966767E+02</pdfrwt>
<pdfrwt beam="1">  1       -2 0.99797497E+00 0.14966767E+02</pdfrwt>
<totfact>-0.11470230E-13</totfact>
</mgrwt>
</event>
<event>
 4    1 -0.5010510E-019  0.1499590E+02  0.7818608E-02  0.1868194E+00
         -2   -1    0    0    0  501 -0.00000000000E+00  0.00000000000E+00  0.11982112191E+03  0.11982112194E+03  0.25500000000E-02 0. -1.
          2   -1    0    0  501    0  0.00000000000E+00 -0.00000000000E+00 -0.46918987469E+00  0.46919680413E+00  0.25500000000E-02 0.  1.
         31    1    1    2    0    0  0.40555363469E+00  0.71828048133E+00  0.57407854678E+02  0.57894741604E+02  0.74470750000E+01 0. -1.
        -31    1    1    2    0    0 -0.40555363469E+00 -0.71828048133E+00  0.61944077362E+02  0.62395577142E+02  0.74470750000E+01 0. -1.
<mgrwt>
<rscale>  0 0.14995903E+02</rscale>
<asrwt>0</asrwt>
<pdfrwt beam="2">  1        2 0.99651015E+00 0.14995903E+02</pdfrwt>
<pdfrwt beam="1">  1       -2 0.99464452E+00 0.14995903E+02</pdfrwt>
<totfact>-0.97372469E-14</totfact>
</mgrwt>
</event>
<event>
 4    1 -0.5010510E-019  0.1499154E+02  0.7818608E-02  0.1868327E+00
         -2   -1    0    0    0  501 -0.00000000000E+00  0.00000000000E+00  0.11992019370E+03  0.11992019372E+03  0.25500000000E-02 0. -1.
          2   -1    0    0  501    0  0.00000000000E+00 -0.00000000000E+00 -0.46852923117E+00  0.46853617039E+00  0.25500000000E-02 0.  1.
         31    1    1    2    0    0 -0.39093636421E-01  0.74120965746E+00  0.56350279369E+02  0.56845086253E+02  0.74470750000E+01 0.  1.
        -31    1    1    2    0    0  0.39093636421E-01 -0.74120965746E+00  0.63101385096E+02  0.63543643641E+02  0.74470750000E+01 0. -1.
<mgrwt>
<rscale>  0 0.14991536E+02</rscale>
<asrwt>0</asrwt>
<pdfrwt beam="2">  1        2 0.99511570E+00 0.14991536E+02</pdfrwt>
<pdfrwt beam="1">  1       -2 0.99545825E+00 0.14991536E+02</pdfrwt>
<totfact>-0.11567988E-13</totfact>
</mgrwt>
</event>
<event>
 4    1  0.5010510E-019  0.1494647E+02  0.7818608E-02  0.1869706E+00
         -2   -1    0    0    0  501 -0.00000000000E+00  0.00000000000E+00  0.11876628583E+03  0.11876628586E+03  0.25500000000E-02 0. -1.
          2   -1    0    0  501    0  0.00000000000E+00 -0.00000000000E+00 -0.47024129971E+00  0.47024821366E+00  0.25500000000E-02 0.  1.
         31    1    1    2    0    0  0.11896863467E+00  0.55236556816E+00  0.57021746534E+02  0.57508762507E+02  0.74470750000E+01 0.  1.
        -31    1    1    2    0    0 -0.11896863467E+00 -0.55236556816E+00  0.61274298000E+02  0.61727771568E+02  0.74470750000E+01 0. -1.
<mgrwt>
<rscale>  0 0.14946468E+02</rscale>
<asrwt>0</asrwt>
<pdfrwt beam="2">  1        2 0.99869983E+00 0.14946468E+02</pdfrwt>
<pdfrwt beam="1">  1       -2 0.98593109E+00 0.14946468E+02</pdfrwt>
<totfact> 0.14080163E-13</totfact>
</mgrwt>
</event>
<event>
 4    1  0.5010510E-019  0.1490571E+02  0.7818608E-02  0.1870959E+00
          2   -1    0    0  501    0  0.00000000000E+00  0.00000000000E+00  0.12009147915E+03  0.12009147917E+03  0.25500000000E-02 0.  1.
         -2   -1    0    0    0  501 -0.00000000000E+00 -0.00000000000E+00 -0.46251931902E+00  0.46252634841E+00  0.25500000000E-02 0. -1.
         31    1    1    2    0    0  0.14502165657E+00  0.22741225268E+00  0.58878922516E+02  0.59348624165E+02  0.74470750000E+01 0. -1.
        -31    1    1    2    0    0 -0.14502165657E+00 -0.22741225268E+00  0.60750037310E+02  0.61205381356E+02  0.74470750000E+01 0.  1.
<mgrwt>
<rscale>  0 0.14905711E+02</rscale>
<asrwt>0</asrwt>
<pdfrwt beam="1">  1        2 0.99682486E+00 0.14905711E+02</pdfrwt>
<pdfrwt beam="2">  1       -2 0.98240578E+00 0.14905711E+02</pdfrwt>
<totfact> 0.69296959E-13</totfact>
</mgrwt>
</event>
<event>
 4    1 -0.5010510E-019  0.1497450E+02  0.7818608E-02  0.1868847E+00
         -2   -1    0    0    0  501 -0.00000000000E+00  0.00000000000E+00  0.12011010687E+03  0.12011010690E+03  0.25500000000E-02 0.  1.
          2   -1    0    0  501    0  0.00000000000E+00 -0.00000000000E+00 -0.46672614967E+00  0.46673311570E+00  0.25500000000E-02 0. -1.
         31    1    1    2    0    0  0.29810462252E+00 -0.36684714916E-02  0.65578512620E+02  0.66000675173E+02  0.74470750000E+01 0.  1.
        -31    1    1    2    0    0 -0.29810462252E+00  0.36684714916E-02  0.54064868101E+02  0.54576164840E+02  0.74470750000E+01 0. -1.
<mgrwt>
<rscale>  0 0.14974505E+02</rscale>
<asrwt>0</asrwt>
<pdfrwt beam="2">  1        2 0.99130709E+00 0.14974505E+02</pdfrwt>
<pdfrwt beam="1">  1       -2 0.99701368E+00 0.14974505E+02</pdfrwt>
<totfact>-0.12740182E-13</totfact>
</mgrwt>
</event>
<event>
 4    1 -0.5010510E-019  0.1495278E+02  0.7818608E-02  0.1869513E+00
          2   -1    0    0  501    0  0.00000000000E+00  0.00000000000E+00  0.11887612031E+03  0.11887612034E+03  0.25500000000E-02 0. -1.
         -2   -1    0    0    0  501 -0.00000000000E+00 -0.00000000000E+00 -0.47020381782E+00  0.47021073232E+00  0.25500000000E-02 0.  1.
         31    1    1    2    0    0  0.12755998487E-01 -0.56501389168E+00  0.56460156859E+02  0.56951976629E+02  0.74470750000E+01 0.  1.
        -31    1    1    2    0    0 -0.12755998487E-01  0.56501389168E+00  0.61945759633E+02  0.62394354440E+02  0.74470750000E+01 0. -1.
<mgrwt>
<rscale>  0 0.14952782E+02</rscale>
<asrwt>0</asrwt>
<pdfrwt beam="1">  1        2 0.98683897E+00 0.14952782E+02</pdfrwt>
<pdfrwt beam="2">  1       -2 0.99862418E+00 0.14952782E+02</pdfrwt>
<totfact>-0.11326623E-13</totfact>
</mgrwt>
</event>
<event>
 4    1 -0.5010510E-019  0.1495968E+02  0.7818608E-02  0.1869301E+00
          2   -1    0    0  501    0  0.00000000000E+00  0.00000000000E+00  0.11903429681E+03  0.11903429684E+03  0.25500000000E-02 0. -1.
         -2   -1    0    0    0  501 -0.00000000000E+00 -0.00000000000E+00 -0.47001248518E+00  0.47001940249E+00  0.25500000000E-02 0.  1.
         31    1    1    2    0    0  0.60118220409E+00 -0.35695450155E+00  0.59410457181E+02  0.59879463801E+02  0.74470750000E+01 0. -1.
        -31    1    1    2    0    0 -0.60118220409E+00  0.35695450155E+00  0.59153827145E+02  0.59624852440E+02  0.74470750000E+01 0.  1.
<mgrwt>
<rscale>  0 0.14959682E+02</rscale>
<asrwt>0</asrwt>
<pdfrwt beam="1">  1        2 0.98814530E+00 0.14959682E+02</pdfrwt>
<pdfrwt beam="2">  1       -2 0.99822465E+00 0.14959682E+02</pdfrwt>
<totfact>-0.11813005E-13</totfact>
</mgrwt>
</event>
<event>
 4    1 -0.5010510E-019  0.1496761E+02  0.7818608E-02  0.1869058E+00
          2   -1    0    0  501    0  0.00000000000E+00  0.00000000000E+00  0.11922120582E+03  0.11922120584E+03  0.25500000000E-02 0.  1.
         -2   -1    0    0    0  501 -0.00000000000E+00 -0.00000000000E+00 -0.46977318796E+00  0.46978010881E+00  0.25500000000E-02 0. -1.
         31    1    1    2    0    0  0.46630281731E-01 -0.72986363064E+00  0.58445198993E+02  0.58922280054E+02  0.74470750000E+01 0. -1.
        -31    1    1    2    0    0 -0.46630281731E-01  0.72986363064E+00  0.60306233635E+02  0.60768705898E+02  0.74470750000E+01 0.  1.
<mgrwt>
<rscale>  0 0.14967611E+02</rscale>
<asrwt>0</asrwt>
<pdfrwt beam="1">  1        2 0.98968882E+00 0.14967611E+02</pdfrwt>
<pdfrwt beam="2">  1       -2 0.99772458E+00 0.14967611E+02</pdfrwt>
<totfact>-0.12110656E-13</totfact>
</mgrwt>
</event>
<event>
 4    1  0.5010510E-019  0.1491740E+02  0.7818608E-02  0.1870600E+00
         -2   -1    0    0    0  501 -0.00000000000E+00  0.00000000000E+00  0.11870384681E+03  0.11870384684E+03  0.25500000000E-02 0.  1.
          2   -1    0    0  501    0  0.00000000000E+00 -0.00000000000E+00 -0.46866029253E+00  0.46866722980E+00  0.25500000000E-02 0. -1.
         31    1    1    2    0    0 -0.18499857758E+00 -0.16573791788E+00  0.56449098071E+02  0.56938750361E+02  0.74470750000E+01 0. -1.
        -31    1    1    2    0    0  0.18499857758E+00  0.16573791788E+00  0.61786088449E+02  0.62233763709E+02  0.74470750000E+01 0. -1.
<mgrwt>
<rscale>  0 0.14917399E+02</rscale>
<asrwt>0</asrwt>
<pdfrwt beam="2">  1        2 0.99535327E+00 0.14917399E+02</pdfrwt>
<pdfrwt beam="1">  1       -2 0.98540173E+00 0.14917399E+02</pdfrwt>
<totfact> 0.41488647E-13</totfact>
</mgrwt>
</event>
<event>
 4    1 -0.5010510E-019  0.1499615E+02  0.7818608E-02  0.1868186E+00
          2   -1    0    0  501    0  0.00000000000E+00  0.00000000000E+00  0.11997280587E+03  0.11997280590E+03  0.25500000000E-02 0.  1.
         -2   -1    0    0    0  501 -0.00000000000E+00 -0.00000000000E+00 -0.46861204346E+00  0.46861898145E+00  0.25500000000E-02 0. -1.
         31    1    1    2    0    0  0.30453224061E+00  0.75791633041E+00  0.57276390127E+02  0.57764270696E+02  0.74470750000E+01 0.  1.
        -31    1    1    2    0    0 -0.30453224061E+00 -0.75791633041E+00  0.62227803700E+02  0.62677154182E+02  0.74470750000E+01 0. -1.
<mgrwt>
<rscale>  0 0.14996149E+02</rscale>
<asrwt>0</asrwt>
<pdfrwt beam="1">  1        2 0.99589397E+00 0.14996149E+02</pdfrwt>
<pdfrwt beam="2">  1       -2 0.99529260E+00 0.14996149E+02</pdfrwt>
<totfact>-0.10610156E-13</totfact>
</mgrwt>
</event>
<event>
 4    1 -0.5010510E-019  0.1491270E+02  0.7818608E-02  0.1870744E+00
         -2   -1    0    0    0  501 -0.00000000000E+00  0.00000000000E+00  0.12008639257E+03  0.12008639260E+03  0.25500000000E-02 0.  1.
          2   -1    0    0  501    0  0.00000000000E+00 -0.00000000000E+00 -0.46297285312E+00  0.46297987562E+00  0.25500000000E-02 0. -1.
         31    1    1    2    0    0  0.13339439474E+00  0.23632408135E-01  0.62610646295E+02  0.63052123740E+02  0.74470750000E+01 0.  1.
        -31    1    1    2    0    0 -0.13339439474E+00 -0.23632408135E-01  0.57012773426E+02  0.57497248737E+02  0.74470750000E+01 0. -1.
<mgrwt>
<rscale>  0 0.14912701E+02</rscale>
<asrwt>0</asrwt>
<pdfrwt beam="2">  1        2 0.98336523E+00 0.14912701E+02</pdfrwt>
<pdfrwt beam="1">  1       -2 0.99678656E+00 0.14912701E+02</pdfrwt>
<totfact>-0.38076904E-13</totfact>
</mgrwt>
</event>
<event>
 4    1  0.5010510E-019  0.1491312E+02  0.7818608E-02  0.1870731E+00
          2   -1    0    0  501    0  0.00000000000E+00  0.00000000000E+00  0.12007065934E+03  0.12007065937E+03  0.25500000000E-02 0. -1.
         -2   -1    0    0    0  501 -0.00000000000E+00 -0.00000000000E+00 -0.46305981369E+00  0.46306683486E+00  0.25500000000E-02 0.  1.
         31    1    1    2    0    0 -0.30567676734E+00 -0.21362264426E+00  0.59414253212E+02  0.59880309649E+02  0.74470750000E+01 0. -1.
        -31    1    1    2    0    0  0.30567676734E+00  0.21362264426E+00  0.60193346317E+02  0.60653416555E+02  0.74470750000E+01 0.  1.
<mgrwt>
<rscale>  0 0.14913125E+02</rscale>
<asrwt>0</asrwt>
<pdfrwt beam="1">  1        2 0.99665718E+00 0.14913125E+02</pdfrwt>
<pdfrwt beam="2">  1       -2 0.98354873E+00 0.14913125E+02</pdfrwt>
<totfact> 0.55748944E-13</totfact>
</mgrwt>
</event>
<event>
 4    1 -0.5010510E-019  0.1501892E+02  0.7818608E-02  0.1867492E+00
         -2   -1    0    0    0  501 -0.00000000000E+00  0.00000000000E+00  0.12007796953E+03  0.12007796956E+03  0.25500000000E-02 0. -1.
          2   -1    0    0  501    0  0.00000000000E+00 -0.00000000000E+00 -0.46962445758E+00  0.46963138061E+00  0.25500000000E-02 0.  1.
         31    1    1    2    0    0 -0.25086699688E-01  0.81969236969E+00  0.63900926128E+02  0.64338633892E+02  0.74470750000E+01 0. -1.
        -31    1    1    2    0    0  0.25086699688E-01 -0.81969236969E+00  0.55707418947E+02  0.56208967049E+02  0.74470750000E+01 0. -1.
<mgrwt>
<rscale>  0 0.15018917E+02</rscale>
<asrwt>0</asrwt>
<pdfrwt beam="2">  1        2 0.99743787E+00 0.15018917E+02</pdfrwt>
<pdfrwt beam="1">  1       -2 0.99677191E+00 0.15018917E+02</pdfrwt>
<totfact>-0.66169335E-14</totfact>
</mgrwt>
</event>
<event>
 4    1 -0.5010510E-019  0.1496281E+02  0.7818608E-02  0.1869205E+00
         -2   -1    0    0    0  501 -0.00000000000E+00  0.00000000000E+00  0.11958234709E+03  0.11958234712E+03  0.25500000000E-02 0.  1.
          2   -1    0    0  501    0  0.00000000000E+00 -0.00000000000E+00 -0.46805429163E+00  0.46806123789E+00  0.25500000000E-02 0. -1.
         31    1    1    2    0    0 -0.63722121333E+00  0.24178976684E+00  0.61315137891E+02  0.61769487401E+02  0.74470750000E+01 0.  1.
        -31    1    1    2    0    0  0.63722121333E+00 -0.24178976684E+00  0.57799154910E+02  0.58280920956E+02  0.74470750000E+01 0. -1.
<mgrwt>
<rscale>  0 0.14962814E+02</rscale>
<asrwt>0</asrwt>
<pdfrwt beam="2">  1        2 0.99409999E+00 0.14962814E+02</pdfrwt>
<pdfrwt beam="1">  1       -2 0.99266077E+00 0.14962814E+02</pdfrwt>
<totfact>-0.10473379E-13</totfact>
</mgrwt>
</event>
<event>
 4    1 -0.5010510E-019  0.1489760E+02  0.7818608E-02  0.1871209E+00
         -2   -1    0    0    0  501 -0.00000000000E+00  0.00000000000E+00  0.12012355036E+03  0.12012355038E+03  0.25500000000E-02 0. -1.
          2   -1    0    0  501    0  0.00000000000E+00 -0.00000000000E+00 -0.46189299215E+00  0.46190003106E+00  0.25500000000E-02 0.  1.
         31    1    1    2    0    0 -0.10703331043E+00 -0.95862501022E-01  0.60407760129E+02  0.60865236840E+02  0.74470750000E+01 0. -1.
        -31    1    1    2    0    0  0.10703331043E+00  0.95862501022E-01  0.59253897235E+02  0.59720213574E+02  0.74470750000E+01 0.  1.
<mgrwt>
<rscale>  0 0.14897604E+02</rscale>
<asrwt>0</asrwt>
<pdfrwt beam="2">  1        2 0.98108156E+00 0.14897604E+02</pdfrwt>
<pdfrwt beam="1">  1       -2 0.99708487E+00 0.14897604E+02</pdfrwt>
<totfact>-0.52594459E-13</totfact>
</mgrwt>
</event>
<event>
 4    1  0.5010510E-019  0.1492635E+02  0.7818608E-02  0.1870324E+00
          2   -1    0    0  501    0  0.00000000000E+00  0.00000000000E+00  0.11984262998E+03  0.11984263000E+03  0.25500000000E-02 0.  1.
         -2   -1    0    0    0  501 -0.00000000000E+00 -0.00000000000E+00 -0.46476410556E+00  0.46477110099E+00  0.25500000000E-02 0. -1.
         31    1    1    2    0    0 -0.17545898162E+00  0.22929542734E+00  0.56498460226E+02  0.56987878502E+02  0.74470750000E+01 0. -1.
        -31    1    1    2    0    0  0.17545898162E+00 -0.22929542734E+00  0.62879405644E+02  0.63319522601E+02  0.74470750000E+01 0.  1.
<mgrwt>
<rscale>  0 0.14926349E+02</rscale>
<asrwt>0</asrwt>
<pdfrwt beam="1">  1        2 0.99478577E+00 0.14926349E+02</pdfrwt>
<pdfrwt beam="2">  1       -2 0.98714742E+00 0.14926349E+02</pdfrwt>
<totfact> 0.23581460E-13</totfact>
</mgrwt>
</event>
<event>
 4    1 -0.5010510E-019  0.1495606E+02  0.7818608E-02  0.1869412E+00
         -2   -1    0    0    0  501 -0.00000000000E+00  0.00000000000E+00  0.11958541945E+03  0.11958541948E+03  0.25500000000E-02 0.  1.
          2   -1    0    0  501    0  0.00000000000E+00 -0.00000000000E+00 -0.46761957616E+00  0.46762652888E+00  0.25500000000E-02 0. -1.
         31    1    1    2    0    0  0.34545802420E-01 -0.63544674886E+00  0.61475166013E+02  0.61927860841E+02  0.74470750000E+01 0. -1.
        -31    1    1    2    0    0 -0.34545802420E-01  0.63544674886E+00  0.57642633862E+02  0.58125185166E+02  0.74470750000E+01 0. -1.
<mgrwt>
<rscale>  0 0.14956056E+02</rscale>
<asrwt>0</asrwt>
<pdfrwt beam="2">  1        2 0.99318041E+00 0.14956056E+02</pdfrwt>
<pdfrwt beam="1">  1       -2 0.99268258E+00 0.14956056E+02</pdfrwt>
<totfact>-0.11297543E-13</totfact>
</mgrwt>
</event>
<event>
 4    1 -0.5010510E-019  0.1500390E+02  0.7818608E-02  0.1867949E+00
         -2   -1    0    0    0  501 -0.00000000000E+00  0.00000000000E+00  0.11998475664E+03  0.11998475667E+03  0.25500000000E-02 0.  1.
          2   -1    0    0  501    0  0.00000000000E+00 -0.00000000000E+00 -0.46905007041E+00  0.46905700193E+00  0.25500000000E-02 0. -1.
         31    1    1    2    0    0  0.85140043389E+00 -0.26336480054E+00  0.61055038716E+02  0.61513989647E+02  0.74470750000E+01 0.  1.
        -31    1    1    2    0    0 -0.85140043389E+00  0.26336480054E+00  0.58460667857E+02  0.58939824024E+02  0.74470750000E+01 0.  1.
<mgrwt>
<rscale>  0 0.15003903E+02</rscale>
<asrwt>0</asrwt>
<pdfrwt beam="2">  1        2 0.99621968E+00 0.15003903E+02</pdfrwt>
<pdfrwt beam="1">  1       -2 0.99599641E+00 0.15003903E+02</pdfrwt>
<totfact>-0.95830643E-14</totfact>
</mgrwt>
</event>
<event>
 4    1  0.5010510E-019  0.1490857E+02  0.7818608E-02  0.1870871E+00
         -2   -1    0    0    0  501 -0.00000000000E+00  0.00000000000E+00  0.11834120924E+03  0.11834120926E+03  0.25500000000E-02 0. -1.
          2   -1    0    0  501    0  0.00000000000E+00 -0.00000000000E+00 -0.46954005000E+00  0.46954697428E+00  0.25500000000E-02 0.  1.
         31    1    1    2    0    0  0.73454685865E-01 -0.70595920156E-01  0.61418430644E+02  0.61868351587E+02  0.74470750000E+01 0. -1.
        -31    1    1    2    0    0 -0.73454685865E-01  0.70595920156E-01  0.56453238543E+02  0.56942404651E+02  0.74470750000E+01 0.  1.
<mgrwt>
<rscale>  0 0.14908568E+02</rscale>
<asrwt>0</asrwt>
<pdfrwt beam="2">  1        2 0.99720230E+00 0.14908568E+02</pdfrwt>
<pdfrwt beam="1">  1       -2 0.98241046E+00 0.14908568E+02</pdfrwt>
<totfact> 0.63552512E-13</totfact>
</mgrwt>
</event>
<event>
 4    1 -0.5010510E-019  0.1491344E+02  0.7818608E-02  0.1870722E+00
          2   -1    0    0  501    0  0.00000000000E+00  0.00000000000E+00  0.11852693755E+03  0.11852693757E+03  0.25500000000E-02 0. -1.
         -2   -1    0    0    0  501 -0.00000000000E+00 -0.00000000000E+00 -0.46911058863E+00  0.46911751925E+00  0.25500000000E-02 0.  1.
         31    1    1    2    0    0 -0.23937616119E+00  0.28834278485E+00  0.58571461130E+02  0.59044181995E+02  0.74470750000E+01 0.  1.
        -31    1    1    2    0    0  0.23937616119E+00 -0.28834278485E+00  0.59486365827E+02  0.59951873097E+02  0.74470750000E+01 0.  1.
<mgrwt>
<rscale>  0 0.14913438E+02</rscale>
<asrwt>0</asrwt>
<pdfrwt beam="1">  1        2 0.98394264E+00 0.14913438E+02</pdfrwt>
<pdfrwt beam="2">  1       -2 0.99629999E+00 0.14913438E+02</pdfrwt>
<totfact>-0.37390878E-13</totfact>
</mgrwt>
</event>
<event>
 4    1 -0.5010510E-019  0.1493357E+02  0.7818608E-02  0.1870103E+00
          2   -1    0    0  501    0  0.00000000000E+00  0.00000000000E+00  0.11926469941E+03  0.11926469944E+03  0.25500000000E-02 0. -1.
         -2   -1    0    0    0  501 -0.00000000000E+00 -0.00000000000E+00 -0.46746798411E+00  0.46747493908E+00  0.25500000000E-02 0.  1.
         31    1    1    2    0    0  0.48116161855E+00  0.17642016705E+00  0.57980601664E+02  0.58459145871E+02  0.74470750000E+01 0.  1.
        -31    1    1    2    0    0 -0.48116161855E+00 -0.17642016705E+00  0.60816629761E+02  0.61273028504E+02  0.74470750000E+01 0. -1.
<mgrwt>
<rscale>  0 0.14933566E+02</rscale>
<asrwt>0</asrwt>
<pdfrwt beam="1">  1        2 0.99002939E+00 0.14933566E+02</pdfrwt>
<pdfrwt beam="2">  1       -2 0.99284930E+00 0.14933566E+02</pdfrwt>
<totfact>-0.15010193E-13</totfact>
</mgrwt>
</event>
<event>
 4    1 -0.5010510E-019  0.1495649E+02  0.7818608E-02  0.1869399E+00
          2   -1    0    0  501    0  0.00000000000E+00  0.00000000000E+00  0.11934509906E+03  0.11934509908E+03  0.25500000000E-02 0. -1.
         -2   -1    0    0    0  501 -0.00000000000E+00 -0.00000000000E+00 -0.46858836521E+00  0.46859530355E+00  0.25500000000E-02 0.  1.
         31    1    1    2    0    0  0.52317059158E+00  0.25437219857E+00  0.62290864449E+02  0.62737143166E+02  0.74470750000E+01 0.  1.
        -31    1    1    2    0    0 -0.52317059158E+00 -0.25437219857E+00  0.56585646241E+02  0.57076551221E+02  0.74470750000E+01 0.  1.
<mgrwt>
<rscale>  0 0.14956489E+02</rscale>
<asrwt>0</asrwt>
<pdfrwt beam="1">  1        2 0.99070345E+00 0.14956489E+02</pdfrwt>
<pdfrwt beam="2">  1       -2 0.99522214E+00 0.14956489E+02</pdfrwt>
<totfact>-0.16643186E-13</totfact>
</mgrwt>
</event>
<event>
 4    1  0.5010510E-019  0.1493431E+02  0.7818608E-02  0.1870080E+00
          2   -1    0    0  501    0  0.00000000000E+00  0.00000000000E+00  0.12012848868E+03  0.12012848870E+03  0.25500000000E-02 0.  1.
         -2   -1    0    0    0  501 -0.00000000000E+00 -0.00000000000E+00 -0.46415299857E+00  0.46416000321E+00  0.25500000000E-02 0. -1.
         31    1    1    2    0    0 -0.10758053640E+00 -0.24716955224E+00  0.63677958664E+02  0.64112510573E+02  0.74470750000E+01 0.  1.
        -31    1    1    2    0    0  0.10758053640E+00  0.24716955224E+00  0.55986377015E+02  0.56480138134E+02  0.74470750000E+01 0. -1.
<mgrwt>
<rscale>  0 0.14934312E+02</rscale>
<asrwt>0</asrwt>
<pdfrwt beam="1">  1        2 0.99714439E+00 0.14934312E+02</pdfrwt>
<pdfrwt beam="2">  1       -2 0.98586353E+00 0.14934312E+02</pdfrwt>
<totfact> 0.26633598E-13</totfact>
</mgrwt>
</event>
<event>
 4    1 -0.5010510E-019  0.1490610E+02  0.7818608E-02  0.1870947E+00
          2   -1    0    0  501    0  0.00000000000E+00  0.00000000000E+00  0.11807098897E+03  0.11807098900E+03  0.25500000000E-02 0.  1.
         -2   -1    0    0    0  501 -0.00000000000E+00 -0.00000000000E+00 -0.47045895051E+00  0.47046586126E+00  0.25500000000E-02 0. -1.
         31    1    1    2    0    0 -0.27418392775E+00  0.11448474085E+00  0.58581728032E+02  0.59053925093E+02  0.74470750000E+01 0. -1.
        -31    1    1    2    0    0  0.27418392775E+00 -0.11448474085E+00  0.59018801991E+02  0.59487529770E+02  0.74470750000E+01 0.  1.
<mgrwt>
<rscale>  0 0.14906101E+02</rscale>
<asrwt>0</asrwt>
<pdfrwt beam="1">  1        2 0.98018369E+00 0.14906101E+02</pdfrwt>
<pdfrwt beam="2">  1       -2 0.99913703E+00 0.14906101E+02</pdfrwt>
<totfact>-0.22030163E-13</totfact>
</mgrwt>
</event>
<event>
 4    1  0.5010510E-019  0.1490655E+02  0.7818608E-02  0.1870934E+00
         -2   -1    0    0    0  501 -0.00000000000E+00  0.00000000000E+00  0.11830484280E+03  0.11830484282E+03  0.25500000000E-02 0. -1.
          2   -1    0    0  501    0  0.00000000000E+00 -0.00000000000E+00 -0.46955695717E+00  0.46956388120E+00  0.25500000000E-02 0.  1.
         31    1    1    2    0    0  0.36283529558E-01 -0.29620045745E+00  0.58460088275E+02  0.58933266483E+02  0.74470750000E+01 0.  1.
        -31    1    1    2    0    0 -0.36283529558E-01  0.29620045745E+00  0.59375197564E+02  0.59841140222E+02  0.74470750000E+01 0.  1.
<mgrwt>
<rscale>  0 0.14906546E+02</rscale>
<asrwt>0</asrwt>
<pdfrwt beam="2">  1        2 0.99723685E+00 0.14906546E+02</pdfrwt>
<pdfrwt beam="1">  1       -2 0.98210990E+00 0.14906546E+02</pdfrwt>
<totfact> 0.66987699E-13</totfact>
</mgrwt>
</event>
<event>
 4    1  0.5010510E-019  0.1491480E+02  0.7818608E-02  0.1870679E+00
         -2   -1    0    0    0  501 -0.00000000000E+00  0.00000000000E+00  0.11846257185E+03  0.11846257188E+03  0.25500000000E-02 0. -1.
          2   -1    0    0  501    0  0.00000000000E+00 -0.00000000000E+00 -0.46945142572E+00  0.46945835131E+00  0.25500000000E-02 0.  1.
         31    1    1    2    0    0  0.16417648073E+00  0.35130251209E+00  0.59471222553E+02  0.59936930230E+02  0.74470750000E+01 0. -1.
        -31    1    1    2    0    0 -0.16417648073E+00 -0.35130251209E+00  0.58521897872E+02  0.58995100000E+02  0.74470750000E+01 0.  1.
<mgrwt>
<rscale>  0 0.14914803E+02</rscale>
<asrwt>0</asrwt>
<pdfrwt beam="2">  1        2 0.99701886E+00 0.14914803E+02</pdfrwt>
<pdfrwt beam="1">  1       -2 0.98341324E+00 0.14914803E+02</pdfrwt>
<totfact> 0.53347067E-13</totfact>
</mgrwt>
</event>
<event>
 4    1 -0.5010510E-019  0.1491111E+02  0.7818608E-02  0.1870793E+00
          2   -1    0    0  501    0  0.00000000000E+00  0.00000000000E+00  0.11887690305E+03  0.11887690308E+03  0.25500000000E-02 0.  1.
         -2   -1    0    0    0  501 -0.00000000000E+00 -0.00000000000E+00 -0.46758380565E+00  0.46759075890E+00  0.25500000000E-02 0. -1.
         31    1    1    2    0    0  0.57237869532E-01 -0.35085779043E+00  0.59246908073E+02  0.59714164313E+02  0.74470750000E+01 0.  1.
        -31    1    1    2    0    0 -0.57237869532E-01  0.35085779043E+00  0.59162411175E+02  0.59630329527E+02  0.74470750000E+01 0.  1.
<mgrwt>
<rscale>  0 0.14911114E+02</rscale>
<asrwt>0</asrwt>
<pdfrwt beam="1">  1        2 0.98682378E+00 0.14911114E+02</pdfrwt>
<pdfrwt beam="2">  1       -2 0.99308168E+00 0.14911114E+02</pdfrwt>
<totfact>-0.23076525E-13</totfact>
</mgrwt>
</event>
<event>
 4    1 -0.5010510E-019  0.1492838E+02  0.7818608E-02  0.1870262E+00
         -2   -1    0    0    0  501 -0.00000000000E+00  0.00000000000E+00  0.12035516553E+03  0.12035516555E+03  0.25500000000E-02 0.  1.
          2   -1    0    0  501    0  0.00000000000E+00 -0.00000000000E+00 -0.46291053193E+00  0.46291755538E+00  0.25500000000E-02 0. -1.
         31    1    1    2    0    0 -0.45804746301E+00  0.16397630559E-01  0.61664803959E+02  0.62114547810E+02  0.74470750000E+01 0.  1.
        -31    1    1    2    0    0  0.45804746301E+00 -0.16397630559E-01  0.58227451036E+02  0.58703535299E+02  0.74470750000E+01 0. -1.
<mgrwt>
<rscale>  0 0.14928376E+02</rscale>
<asrwt>0</asrwt>
<pdfrwt beam="2">  1        2 0.98324180E+00 0.14928376E+02</pdfrwt>
<pdfrwt beam="1">  1       -2 0.99900844E+00 0.14928376E+02</pdfrwt>
<totfact>-0.14993446E-13</totfact>
</mgrwt>
</event>
<event>
 4    1 -0.5010510E-019  0.1502377E+02  0.7818608E-02  0.1867344E+00
          2   -1    0    0  501    0  0.00000000000E+00  0.00000000000E+00  0.12023764559E+03  0.12023764562E+03  0.25500000000E-02 0. -1.
         -2   -1    0    0    0  501 -0.00000000000E+00 -0.00000000000E+00 -0.46930377157E+00  0.46931069933E+00  0.25500000000E-02 0.  1.
         31    1    1    2    0    0 -0.84979349478E-01  0.50908884404E-01  0.52013488881E+02  0.52543998372E+02  0.74470750000E+01 0.  1.
        -31    1    1    2    0    0  0.84979349478E-01 -0.50908884404E-01  0.67754852937E+02  0.68162957945E+02  0.74470750000E+01 0. -1.
<mgrwt>
<rscale>  0 0.15023768E+02</rscale>
<asrwt>0</asrwt>
<pdfrwt beam="1">  1        2 0.99808957E+00 0.15023768E+02</pdfrwt>
<pdfrwt beam="2">  1       -2 0.99676458E+00 0.15023768E+02</pdfrwt>
<totfact>-0.53081721E-14</totfact>
</mgrwt>
</event>
<event>
 4    1 -0.5010510E-019  0.1489558E+02  0.7818608E-02  0.1871272E+00
          2   -1    0    0  501    0  0.00000000000E+00  0.00000000000E+00  0.11812710507E+03  0.11812710510E+03  0.25500000000E-02 0.  1.
         -2   -1    0    0    0  501 -0.00000000000E+00 -0.00000000000E+00 -0.46957163135E+00  0.46957855516E+00  0.25500000000E-02 0. -1.
         31    1    1    2    0    0 -0.48057277662E-01 -0.64372178818E-01  0.58314605849E+02  0.58788252523E+02  0.74470750000E+01 0. -1.
        -31    1    1    2    0    0  0.48057277662E-01  0.64372178818E-01  0.59342927591E+02  0.59808431132E+02  0.74470750000E+01 0.  1.
<mgrwt>
<rscale>  0 0.14895576E+02</rscale>
<asrwt>0</asrwt>
<pdfrwt beam="1">  1        2 0.98064036E+00 0.14895576E+02</pdfrwt>
<pdfrwt beam="2">  1       -2 0.99726196E+00 0.14895576E+02</pdfrwt>
<totfact>-0.54244246E-13</totfact>
</mgrwt>
</event>
<event>
 4    1 -0.5010510E-019  0.1491966E+02  0.7818608E-02  0.1870530E+00
          2   -1    0    0  501    0  0.00000000000E+00  0.00000000000E+00  0.11838896558E+03  0.11838896561E+03  0.25500000000E-02 0. -1.
         -2   -1    0    0    0  501 -0.00000000000E+00 -0.00000000000E+00 -0.47004927825E+00  0.47005619502E+00  0.25500000000E-02 0.  1.
         31    1    1    2    0    0 -0.21281011049E+00 -0.27560756016E+00  0.61050396421E+02  0.61503911070E+02  0.74470750000E+01 0. -1.
        -31    1    1    2    0    0  0.21281011049E+00  0.27560756016E+00  0.56868519881E+02  0.57355110732E+02  0.74470750000E+01 0. -1.
<mgrwt>
<rscale>  0 0.14919660E+02</rscale>
<asrwt>0</asrwt>
<pdfrwt beam="1">  1        2 0.98280955E+00 0.14919660E+02</pdfrwt>
<pdfrwt beam="2">  1       -2 0.99828109E+00 0.14919660E+02</pdfrwt>
<totfact>-0.26234824E-13</totfact>
</mgrwt>
</event>
<event>
 4    1 -0.5010510E-019  0.1493294E+02  0.7818608E-02  0.1870122E+00
          2   -1    0    0  501    0  0.00000000000E+00  0.00000000000E+00  0.11839822992E+03  0.11839822995E+03  0.25500000000E-02 0. -1.
         -2   -1    0    0    0  501 -0.00000000000E+00 -0.00000000000E+00 -0.47084987784E+00  0.47085678285E+00  0.25500000000E-02 0.  1.
         31    1    1    2    0    0  0.12009487061E+00  0.50692174231E+00  0.57899116398E+02  0.58378403525E+02  0.74470750000E+01 0.  1.
        -31    1    1    2    0    0 -0.12009487061E+00 -0.50692174231E+00  0.60028263648E+02  0.60490683208E+02  0.74470750000E+01 0. -1.
<mgrwt>
<rscale>  0 0.14932944E+02</rscale>
<asrwt>0</asrwt>
<pdfrwt beam="1">  1        2 0.98289278E+00 0.14932944E+02</pdfrwt>
<pdfrwt beam="2">  1       -2 0.99997493E+00 0.14932944E+02</pdfrwt>
<totfact>-0.43283398E-15</totfact>
</mgrwt>
</event>
<event>
 4    1 -0.5010510E-019  0.1498422E+02  0.7818608E-02  0.1868550E+00
          2   -1    0    0  501    0  0.00000000000E+00  0.00000000000E+00  0.11923646979E+03  0.11923646982E+03  0.25500000000E-02 0. -1.
         -2   -1    0    0    0  501 -0.00000000000E+00 -0.00000000000E+00 -0.47075610773E+00  0.47076301412E+00  0.25500000000E-02 0.  1.
         31    1    1    2    0    0  0.63812083559E+00 -0.12345292100E+00  0.55385646039E+02  0.55887844403E+02  0.74470750000E+01 0. -1.
        -31    1    1    2    0    0 -0.63812083559E+00  0.12345292100E+00  0.63380067643E+02  0.63819388428E+02  0.74470750000E+01 0. -1.
<mgrwt>
<rscale>  0 0.14984220E+02</rscale>
<asrwt>0</asrwt>
<pdfrwt beam="1">  1        2 0.98982316E+00 0.14984220E+02</pdfrwt>
<pdfrwt beam="2">  1       -2 0.99980441E+00 0.14984220E+02</pdfrwt>
<totfact>-0.12296300E-14</totfact>
</mgrwt>
</event>
<event>
 4    1  0.5010510E-019  0.1495019E+02  0.7818608E-02  0.1869592E+00
         -2   -1    0    0    0  501 -0.00000000000E+00  0.00000000000E+00  0.11896885025E+03  0.11896885028E+03  0.25500000000E-02 0.  1.
          2   -1    0    0  501    0  0.00000000000E+00 -0.00000000000E+00 -0.46967464327E+00  0.46968156557E+00  0.25500000000E-02 0. -1.
         31    1    1    2    0    0 -0.32125778062E+00 -0.50195721206E-01  0.54784153884E+02  0.55288951600E+02  0.74470750000E+01 0. -1.
        -31    1    1    2    0    0  0.32125778062E+00  0.50195721206E-01  0.63715021723E+02  0.64149580243E+02  0.74470750000E+01 0.  1.
<mgrwt>
<rscale>  0 0.14950193E+02</rscale>
<asrwt>0</asrwt>
<pdfrwt beam="2">  1        2 0.99750781E+00 0.14950193E+02</pdfrwt>
<pdfrwt beam="1">  1       -2 0.98760135E+00 0.14950193E+02</pdfrwt>
<totfact> 0.12126058E-13</totfact>
</mgrwt>
</event>
<event>
 4    1 -0.5010510E-019  0.1497857E+02  0.7818608E-02  0.1868723E+00
          2   -1    0    0  501    0  0.00000000000E+00  0.00000000000E+00  0.11944457826E+03  0.11944457828E+03  0.25500000000E-02 0.  1.
         -2   -1    0    0    0  501 -0.00000000000E+00 -0.00000000000E+00 -0.46958148962E+00  0.46958841329E+00  0.25500000000E-02 0. -1.
         31    1    1    2    0    0  0.28492222012E+00  0.48026229583E+00  0.54968549039E+02  0.55473526498E+02  0.74470750000E+01 0.  1.
        -31    1    1    2    0    0 -0.28492222012E+00 -0.48026229583E+00  0.64006447728E+02  0.64440640199E+02  0.74470750000E+01 0.  1.
<mgrwt>
<rscale>  0 0.14978569E+02</rscale>
<asrwt>0</asrwt>
<pdfrwt beam="1">  1        2 0.99153423E+00 0.14978569E+02</pdfrwt>
<pdfrwt beam="2">  1       -2 0.99732637E+00 0.14978569E+02</pdfrwt>
<totfact>-0.11612608E-13</totfact>
</mgrwt>
</event>
<event>
 4    1 -0.5010510E-019  0.1493909E+02  0.7818608E-02  0.1869933E+00
         -2   -1    0    0    0  501 -0.00000000000E+00  0.00000000000E+00  0.12020280688E+03  0.12020280691E+03  0.25500000000E-02 0.  1.
          2   -1    0    0  501    0  0.00000000000E+00 -0.00000000000E+00 -0.46416275036E+00  0.46416975485E+00  0.25500000000E-02 0. -1.
         31    1    1    2    0    0 -0.14643127923E+00 -0.46870467964E+00  0.57392386481E+02  0.57875608664E+02  0.74470750000E+01 0. -1.
        -31    1    1    2    0    0  0.14643127923E+00  0.46870467964E+00  0.62346257653E+02  0.62791368003E+02  0.74470750000E+01 0.  1.
<mgrwt>
<rscale>  0 0.14939088E+02</rscale>
<asrwt>0</asrwt>
<pdfrwt beam="2">  1        2 0.98588650E+00 0.14939088E+02</pdfrwt>
<pdfrwt beam="1">  1       -2 0.99775899E+00 0.14939088E+02</pdfrwt>
<totfact>-0.19605177E-13</totfact>
</mgrwt>
</event>
<event>
 4    1 -0.5010510E-019  0.1498330E+02  0.7818608E-02  0.1868578E+00
          2   -1    0    0  501    0  0.00000000000E+00  0.00000000000E+00  0.12008964029E+03  0.12008964031E+03  0.25500000000E-02 0.  1.
         -2   -1    0    0    0  501 -0.00000000000E+00 -0.00000000000E+00 -0.46735431850E+00  0.46736127516E+00  0.25500000000E-02 0. -1.
         31    1    1    2    0    0  0.11577512867E+00 -0.21495860204E+00  0.66076231354E+02  0.66495014002E+02  0.74470750000E+01 0.  1.
        -31    1    1    2    0    0 -0.11577512867E+00  0.21495860204E+00  0.53546054613E+02  0.54061987586E+02  0.74470750000E+01 0. -1.
<mgrwt>
<rscale>  0 0.14983302E+02</rscale>
<asrwt>0</asrwt>
<pdfrwt beam="1">  1        2 0.99684964E+00 0.14983302E+02</pdfrwt>
<pdfrwt beam="2">  1       -2 0.99263545E+00 0.14983302E+02</pdfrwt>
<totfact>-0.73098004E-14</totfact>
</mgrwt>
</event>
<event>
 4    1 -0.5010510E-019  0.1496139E+02  0.7818608E-02  0.1869249E+00
          2   -1    0    0  501    0  0.00000000000E+00  0.00000000000E+00  0.11917420858E+03  0.11917420861E+03  0.25500000000E-02 0. -1.
         -2   -1    0    0    0  501 -0.00000000000E+00 -0.00000000000E+00 -0.46956801208E+00  0.46957493595E+00  0.25500000000E-02 0.  1.
         31    1    1    2    0    0  0.65449445609E+00 -0.14437598974E+00  0.57516901683E+02  0.58000880275E+02  0.74470750000E+01 0.  1.
        -31    1    1    2    0    0 -0.65449445609E+00  0.14437598974E+00  0.61187738886E+02  0.61642903269E+02  0.74470750000E+01 0. -1.
<mgrwt>
<rscale>  0 0.14961392E+02</rscale>
<asrwt>0</asrwt>
<pdfrwt beam="1">  1        2 0.98929851E+00 0.14961392E+02</pdfrwt>
<pdfrwt beam="2">  1       -2 0.99728900E+00 0.14961392E+02</pdfrwt>
<totfact>-0.14340252E-13</totfact>
</mgrwt>
</event>
<event>
 4    1  0.5010510E-019  0.1493245E+02  0.7818608E-02  0.1870137E+00
          2   -1    0    0  501    0  0.00000000000E+00  0.00000000000E+00  0.11988362517E+03  0.11988362520E+03  0.25500000000E-02 0. -1.
         -2   -1    0    0    0  501 -0.00000000000E+00 -0.00000000000E+00 -0.46498516037E+00  0.46499215247E+00  0.25500000000E-02 0.  1.
         31    1    1    2    0    0  0.29790339437E+00 -0.40416770714E+00  0.61184567833E+02  0.61638156729E+02  0.74470750000E+01 0. -1.
        -31    1    1    2    0    0 -0.29790339437E+00  0.40416770714E+00  0.58234072178E+02  0.58710460622E+02  0.74470750000E+01 0.  1.
<mgrwt>
<rscale>  0 0.14932452E+02</rscale>
<asrwt>0</asrwt>
<pdfrwt beam="1">  1        2 0.99512657E+00 0.14932452E+02</pdfrwt>
<pdfrwt beam="2">  1       -2 0.98761642E+00 0.14932452E+02</pdfrwt>
<totfact> 0.18318704E-13</totfact>
</mgrwt>
</event>
<event>
 4    1 -0.5010510E-019  0.1500467E+02  0.7818608E-02  0.1867926E+00
          2   -1    0    0  501    0  0.00000000000E+00  0.00000000000E+00  0.11977717821E+03  0.11977717823E+03  0.25500000000E-02 0. -1.
         -2   -1    0    0    0  501 -0.00000000000E+00 -0.00000000000E+00 -0.46991086437E+00  0.46991778319E+00  0.25500000000E-02 0.  1.
         31    1    1    2    0    0  0.34071730509E+00 -0.44822263223E+00  0.53935576189E+02  0.54450181788E+02  0.74470750000E+01 0. -1.
        -31    1    1    2    0    0 -0.34071730509E+00  0.44822263223E+00  0.65371691152E+02  0.65796914228E+02  0.74470750000E+01 0. -1.
<mgrwt>
<rscale>  0 0.15004668E+02</rscale>
<asrwt>0</asrwt>
<pdfrwt beam="1">  1        2 0.99428712E+00 0.15004668E+02</pdfrwt>
<pdfrwt beam="2">  1       -2 0.99803402E+00 0.15004668E+02</pdfrwt>
<totfact>-0.74783893E-14</totfact>
</mgrwt>
</event>
<event>
 4    1 -0.5010510E-019  0.1498148E+02  0.7818608E-02  0.1868634E+00
          2   -1    0    0  501    0  0.00000000000E+00  0.00000000000E+00  0.11956664375E+03  0.11956664378E+03  0.25500000000E-02 0. -1.
         -2   -1    0    0    0  501 -0.00000000000E+00 -0.00000000000E+00 -0.46928458690E+00  0.46929151495E+00  0.25500000000E-02 0.  1.
         31    1    1    2    0    0 -0.33314875684E+00  0.68696285732E+00  0.61658945386E+02  0.62111733015E+02  0.74470750000E+01 0. -1.
        -31    1    1    2    0    0  0.33314875684E+00 -0.68696285732E+00  0.57438413779E+02  0.57924202278E+02  0.74470750000E+01 0. -1.
<mgrwt>
<rscale>  0 0.14981482E+02</rscale>
<asrwt>0</asrwt>
<pdfrwt beam="1">  1        2 0.99254110E+00 0.14981482E+02</pdfrwt>
<pdfrwt beam="2">  1       -2 0.99670225E+00 0.14981482E+02</pdfrwt>
<totfact>-0.12366974E-13</totfact>
</mgrwt>
</event>
<event>
 4    1 -0.5010510E-019  0.1501116E+02  0.7818608E-02  0.1867728E+00
          2   -1    0    0  501    0  0.00000000000E+00  0.00000000000E+00  0.11988833726E+03  0.11988833729E+03  0.25500000000E-02 0.  1.
         -2   -1    0    0    0  501 -0.00000000000E+00 -0.00000000000E+00 -0.46988124002E+00  0.46988815927E+00  0.25500000000E-02 0. -1.
         31    1    1    2    0    0  0.77560174889E+00 -0.37417430600E-01  0.55529020062E+02  0.56031544270E+02  0.74470750000E+01 0. -1.
        -31    1    1    2    0    0 -0.77560174889E+00  0.37417430600E-01  0.63889435962E+02  0.64326681181E+02  0.74470750000E+01 0. -1.
<mgrwt>
<rscale>  0 0.15011156E+02</rscale>
<asrwt>0</asrwt>
<pdfrwt beam="1">  1        2 0.99520602E+00 0.15011156E+02</pdfrwt>
<pdfrwt beam="2">  1       -2 0.99797497E+00 0.15011156E+02</pdfrwt>
<totfact>-0.70081417E-14</totfact>
</mgrwt>
</event>
<event>
 4    1  0.5010510E-019  0.1490442E+02  0.7818608E-02  0.1870999E+00
          2   -1    0    0  501    0  0.00000000000E+00  0.00000000000E+00  0.11958260274E+03  0.11958260276E+03  0.25500000000E-02 0. -1.
         -2   -1    0    0    0  501 -0.00000000000E+00 -0.00000000000E+00 -0.46440696520E+00  0.46441396601E+00  0.25500000000E-02 0.  1.
         31    1    1    2    0    0  0.13916175057E+00  0.11819062144E+00  0.61232301937E+02  0.61683766597E+02  0.74470750000E+01 0. -1.
        -31    1    1    2    0    0 -0.13916175057E+00 -0.11819062144E+00  0.57885893833E+02  0.58363250132E+02  0.74470750000E+01 0.  1.
<mgrwt>
<rscale>  0 0.14904418E+02</rscale>
<asrwt>0</asrwt>
<pdfrwt beam="1">  1        2 0.99263273E+00 0.14904418E+02</pdfrwt>
<pdfrwt beam="2">  1       -2 0.98638353E+00 0.14904418E+02</pdfrwt>
<totfact> 0.37839319E-13</totfact>
</mgrwt>
</event>
<event>
 4    1 -0.5010510E-019  0.1490457E+02  0.7818608E-02  0.1870995E+00
         -2   -1    0    0    0  501 -0.00000000000E+00  0.00000000000E+00  0.11989916452E+03  0.11989916455E+03  0.25500000000E-02 0.  1.
          2   -1    0    0  501    0  0.00000000000E+00 -0.00000000000E+00 -0.46319009739E+00  0.46319711659E+00  0.25500000000E-02 0. -1.
         31    1    1    2    0    0 -0.15551878047E+00 -0.18402281966E+00  0.60847211696E+02  0.61301714068E+02  0.74470750000E+01 0.  1.
        -31    1    1    2    0    0  0.15551878047E+00  0.18402281966E+00  0.58588762728E+02  0.59060647597E+02  0.74470750000E+01 0. -1.
<mgrwt>
<rscale>  0 0.14904567E+02</rscale>
<asrwt>0</asrwt>
<pdfrwt beam="2">  1        2 0.98381898E+00 0.14904567E+02</pdfrwt>
<pdfrwt beam="1">  1       -2 0.99524022E+00 0.14904567E+02</pdfrwt>
<totfact>-0.41869972E-13</totfact>
</mgrwt>
</event>
<event>
 4    1 -0.5010510E-019  0.1492481E+02  0.7818608E-02  0.1870372E+00
          2   -1    0    0  501    0  0.00000000000E+00  0.00000000000E+00  0.11897042961E+03  0.11897042964E+03  0.25500000000E-02 0. -1.
         -2   -1    0    0    0  501 -0.00000000000E+00 -0.00000000000E+00 -0.46807493274E+00  0.46808187869E+00  0.25500000000E-02 0.  1.
         31    1    1    2    0    0  0.21665571004E+00  0.13975475652E+00  0.62473140295E+02  0.62915965029E+02  0.74470750000E+01 0. -1.
        -31    1    1    2    0    0 -0.21665571004E+00 -0.13975475652E+00  0.56029214381E+02  0.56522546487E+02  0.74470750000E+01 0.  1.
<mgrwt>
<rscale>  0 0.14924811E+02</rscale>
<asrwt>0</asrwt>
<pdfrwt beam="1">  1        2 0.98760118E+00 0.14924811E+02</pdfrwt>
<pdfrwt beam="2">  1       -2 0.99412372E+00 0.14924811E+02</pdfrwt>
<totfact>-0.23187578E-13</totfact>
</mgrwt>
</event>
<event>
 4    1  0.5010510E-019  0.1494468E+02  0.7818608E-02  0.1869761E+00
          2   -1    0    0  501    0  0.00000000000E+00  0.00000000000E+00  0.11991819607E+03  0.11991819610E+03  0.25500000000E-02 0.  1.
         -2   -1    0    0    0  501 -0.00000000000E+00 -0.00000000000E+00 -0.46561306103E+00  0.46562004371E+00  0.25500000000E-02 0. -1.
         31    1    1    2    0    0 -0.39074892282E+00  0.41744704215E+00  0.61528004524E+02  0.61979683877E+02  0.74470750000E+01 0.  1.
        -31    1    1    2    0    0  0.39074892282E+00 -0.41744704215E+00  0.57924578485E+02  0.58404132264E+02  0.74470750000E+01 0.  1.
<mgrwt>
<rscale>  0 0.14944685E+02</rscale>
<asrwt>0</asrwt>
<pdfrwt beam="1">  1        2 0.99541762E+00 0.14944685E+02</pdfrwt>
<pdfrwt beam="2">  1       -2 0.98894599E+00 0.14944685E+02</pdfrwt>
<totfact> 0.72896917E-14</totfact>
</mgrwt>
</event>
<event>
 4    1 -0.5010510E-019  0.1493586E+02  0.7818608E-02  0.1870032E+00
         -2   -1    0    0    0  501 -0.00000000000E+00  0.00000000000E+00  0.11962457886E+03  0.11962457889E+03  0.25500000000E-02 0. -1.
          2   -1    0    0  501    0  0.00000000000E+00 -0.00000000000E+00 -0.46620459827E+00  0.46621157208E+00  0.25500000000E-02 0.  1.
         31    1    1    2    0    0  0.51563637743E+00 -0.77381154206E-01  0.61170184730E+02  0.61624039909E+02  0.74470750000E+01 0. -1.
        -31    1    1    2    0    0 -0.51563637743E+00  0.77381154206E-01  0.57988189536E+02  0.58466750554E+02  0.74470750000E+01 0. -1.
<mgrwt>
<rscale>  0 0.14935856E+02</rscale>
<asrwt>0</asrwt>
<pdfrwt beam="2">  1        2 0.99018810E+00 0.14935856E+02</pdfrwt>
<pdfrwt beam="1">  1       -2 0.99299468E+00 0.14935856E+02</pdfrwt>
<totfact>-0.15209921E-13</totfact>
</mgrwt>
</event>
<event>
 4    1  0.5010510E-019  0.1493768E+02  0.7818608E-02  0.1869976E+00
          2   -1    0    0  501    0  0.00000000000E+00  0.00000000000E+00  0.12045813273E+03  0.12045813276E+03  0.25500000000E-02 0. -1.
         -2   -1    0    0    0  501 -0.00000000000E+00 -0.00000000000E+00 -0.46309184293E+00  0.46309886362E+00  0.25500000000E-02 0.  1.
         31    1    1    2    0    0 -0.21163942712E+00 -0.91271983705E-01  0.64215939409E+02  0.64646723985E+02  0.74470750000E+01 0. -1.
        -31    1    1    2    0    0  0.21163942712E+00  0.91271983705E-01  0.55779101483E+02  0.56274507640E+02  0.74470750000E+01 0.  1.
<mgrwt>
<rscale>  0 0.14937685E+02</rscale>
<asrwt>0</asrwt>
<pdfrwt beam="1">  1        2 0.99986135E+00 0.14937685E+02</pdfrwt>
<pdfrwt beam="2">  1       -2 0.98362865E+00 0.14937685E+02</pdfrwt>
<totfact> 0.32291931E-14</totfact>
</mgrwt>
</event>
<event>
 4    1  0.5010510E-019  0.1491829E+02  0.7818608E-02  0.1870572E+00
          2   -1    0    0  501    0  0.00000000000E+00  0.00000000000E+00  0.11990659102E+03  0.11990659105E+03  0.25500000000E-02 0. -1.
         -2   -1    0    0    0  501 -0.00000000000E+00 -0.00000000000E+00 -0.46401469631E+00  0.46402170304E+00  0.25500000000E-02 0.  1.
         31    1    1    2    0    0  0.12007644595E+00 -0.10878801341E+00  0.56558368082E+02  0.57046771857E+02  0.74470750000E+01 0.  1.
        -31    1    1    2    0    0 -0.12007644595E+00  0.10878801341E+00  0.62884208242E+02  0.63323840894E+02  0.74470750000E+01 0.  1.
<mgrwt>
<rscale>  0 0.14918290E+02</rscale>
<asrwt>0</asrwt>
<pdfrwt beam="1">  1        2 0.99530845E+00 0.14918290E+02</pdfrwt>
<pdfrwt beam="2">  1       -2 0.98556389E+00 0.14918290E+02</pdfrwt>
<totfact> 0.39687978E-13</totfact>
</mgrwt>
</event>
<event>
 4    1 -0.5010510E-019  0.1490761E+02  0.7818608E-02  0.1870901E+00
         -2   -1    0    0    0  501 -0.00000000000E+00  0.00000000000E+00  0.11988504026E+03  0.11988504029E+03  0.25500000000E-02 0.  1.
          2   -1    0    0  501    0  0.00000000000E+00 -0.00000000000E+00 -0.46343386667E+00  0.46344088218E+00  0.25500000000E-02 0. -1.
         31    1    1    2    0    0  0.86173078107E-01  0.30386937935E+00  0.59895441929E+02  0.60357457305E+02  0.74470750000E+01 0.  1.
        -31    1    1    2    0    0 -0.86173078107E-01 -0.30386937935E+00  0.59526164468E+02  0.59991023868E+02  0.74470750000E+01 0.  1.
<mgrwt>
<rscale>  0 0.14907610E+02</rscale>
<asrwt>0</asrwt>
<pdfrwt beam="2">  1        2 0.98433430E+00 0.14907610E+02</pdfrwt>
<pdfrwt beam="1">  1       -2 0.99512545E+00 0.14907610E+02</pdfrwt>
<totfact>-0.38586606E-13</totfact>
</mgrwt>
</event>
<event>
 4    1  0.5010510E-019  0.1491826E+02  0.7818608E-02  0.1870573E+00
         -2   -1    0    0    0  501 -0.00000000000E+00  0.00000000000E+00  0.11845841313E+03  0.11845841316E+03  0.25500000000E-02 0. -1.
          2   -1    0    0  501    0  0.00000000000E+00 -0.00000000000E+00 -0.46968547826E+00  0.46969240039E+00  0.25500000000E-02 0.  1.
         31    1    1    2    0    0 -0.23311484064E-01 -0.41863516451E+00  0.58497485269E+02  0.58971098919E+02  0.74470750000E+01 0. -1.
        -31    1    1    2    0    0  0.23311484064E-01  0.41863516451E+00  0.59491242381E+02  0.59957006638E+02  0.74470750000E+01 0. -1.
<mgrwt>
<rscale>  0 0.14918259E+02</rscale>
<asrwt>0</asrwt>
<pdfrwt beam="2">  1        2 0.99751383E+00 0.14918259E+02</pdfrwt>
<pdfrwt beam="1">  1       -2 0.98338079E+00 0.14918259E+02</pdfrwt>
<totfact> 0.47313493E-13</totfact>
</mgrwt>
</event>
<event>
 4    1 -0.5010510E-019  0.1497629E+02  0.7818608E-02  0.1868793E+00
         -2   -1    0    0    0  501 -0.00000000000E+00  0.00000000000E+00  0.11993555286E+03  0.11993555288E+03  0.25500000000E-02 0.  1.
          2   -1    0    0  501    0  0.00000000000E+00 -0.00000000000E+00 -0.46751688187E+00  0.46752383611E+00  0.25500000000E-02 0. -1.
         31    1    1    2    0    0 -0.15430177360E+00 -0.22867052052E+00  0.65627039104E+02  0.66048794742E+02  0.74470750000E+01 0.  1.
        -31    1    1    2    0    0  0.15430177360E+00  0.22867052052E+00  0.53840996871E+02  0.54354281978E+02  0.74470750000E+01 0. -1.
<mgrwt>
<rscale>  0 0.14976290E+02</rscale>
<asrwt>0</asrwt>
<pdfrwt beam="2">  1        2 0.99297443E+00 0.14976290E+02</pdfrwt>
<pdfrwt beam="1">  1       -2 0.99557688E+00 0.14976290E+02</pdfrwt>
<totfact>-0.13746505E-13</totfact>
</mgrwt>
</event>
<event>
 4    1 -0.5010510E-019  0.1497904E+02  0.7818608E-02  0.1868709E+00
          2   -1    0    0  501    0  0.00000000000E+00  0.00000000000E+00  0.11952431245E+03  0.11952431248E+03  0.25500000000E-02 0.  1.
         -2   -1    0    0    0  501 -0.00000000000E+00 -0.00000000000E+00 -0.46929764363E+00  0.46930457148E+00  0.25500000000E-02 0. -1.
         31    1    1    2    0    0 -0.16963403721E+00 -0.65166674209E+00  0.56123880924E+02  0.56619805557E+02  0.74470750000E+01 0.  1.
        -31    1    1    2    0    0  0.16963403721E+00  0.65166674209E+00  0.62931133884E+02  0.63373811493E+02  0.74470750000E+01 0. -1.
<mgrwt>
<rscale>  0 0.14979038E+02</rscale>
<asrwt>0</asrwt>
<pdfrwt beam="1">  1        2 0.99219118E+00 0.14979038E+02</pdfrwt>
<pdfrwt beam="2">  1       -2 0.99672849E+00 0.14979038E+02</pdfrwt>
<totfact>-0.12621718E-13</totfact>
</mgrwt>
</event>
<event>
 4    1 -0.5010510E-019  0.1490777E+02  0.7818608E-02  0.1870896E+00
          2   -1    0    0  501    0  0.00000000000E+00  0.00000000000E+00  0.11802581046E+03  0.11802581049E+03  0.25500000000E-02 0.  1.
         -2   -1    0    0    0  501 -0.00000000000E+00 -0.00000000000E+00 -0.47074444797E+00  0.47075135453E+00  0.25500000000E-02 0. -1.
         31    1    1    2    0    0  0.13671435131E+00  0.48564236370E-01  0.56523276366E+02  0.57011935123E+02  0.74470750000E+01 0. -1.
        -31    1    1    2    0    0 -0.13671435131E+00 -0.48564236370E-01  0.61031789650E+02  0.61484626723E+02  0.74470750000E+01 0.  1.
<mgrwt>
<rscale>  0 0.14907771E+02</rscale>
<asrwt>0</asrwt>
<pdfrwt beam="1">  1        2 0.97981248E+00 0.14907771E+02</pdfrwt>
<pdfrwt beam="2">  1       -2 0.99973942E+00 0.14907771E+02</pdfrwt>
<totfact>-0.74043658E-14</totfact>
</mgrwt>
</event>
<event>
 4    1 -0.5010510E-019  0.1490811E+02  0.7818608E-02  0.1870886E+00
          2   -1    0    0  501    0  0.00000000000E+00  0.00000000000E+00  0.11856052366E+03  0.11856052369E+03  0.25500000000E-02 0. -1.
         -2   -1    0    0    0  501 -0.00000000000E+00 -0.00000000000E+00 -0.46864251934E+00  0.46864945688E+00  0.25500000000E-02 0.  1.
         31    1    1    2    0    0  0.39210420714E-01 -0.30568033447E+00  0.58287945159E+02  0.58762559976E+02  0.74470750000E+01 0. -1.
        -31    1    1    2    0    0 -0.39210420714E-01  0.30568033447E+00  0.59803935983E+02  0.60266613171E+02  0.74470750000E+01 0.  1.
<mgrwt>
<rscale>  0 0.14908107E+02</rscale>
<asrwt>0</asrwt>
<pdfrwt beam="1">  1        2 0.98421648E+00 0.14908107E+02</pdfrwt>
<pdfrwt beam="2">  1       -2 0.99531094E+00 0.14908107E+02</pdfrwt>
<totfact>-0.39060850E-13</totfact>
</mgrwt>
</event>
<event>
 4    1 -0.5010510E-019  0.1495424E+02  0.7818608E-02  0.1869468E+00
          2   -1    0    0  501    0  0.00000000000E+00  0.00000000000E+00  0.11918876551E+03  0.11918876553E+03  0.25500000000E-02 0. -1.
         -2   -1    0    0    0  501 -0.00000000000E+00 -0.00000000000E+00 -0.46906188185E+00  0.46906881318E+00  0.25500000000E-02 0.  1.
         31    1    1    2    0    0  0.59400950573E+00 -0.28497870367E+00  0.58401770653E+02  0.58878347477E+02  0.74470750000E+01 0. -1.
        -31    1    1    2    0    0 -0.59400950573E+00  0.28497870367E+00  0.60317932971E+02  0.60779486870E+02  0.74470750000E+01 0. -1.
<mgrwt>
<rscale>  0 0.14954240E+02</rscale>
<asrwt>0</asrwt>
<pdfrwt beam="1">  1        2 0.98941469E+00 0.14954240E+02</pdfrwt>
<pdfrwt beam="2">  1       -2 0.99621876E+00 0.14954240E+02</pdfrwt>
<totfact>-0.17317940E-13</totfact>
</mgrwt>
</event>
<event>
 4    1 -0.5010510E-019  0.1494275E+02  0.7818608E-02  0.1869821E+00
          2   -1    0    0  501    0  0.00000000000E+00  0.00000000000E+00  0.11904196489E+03  0.11904196491E+03  0.25500000000E-02 0.  1.
         -2   -1    0    0    0  501 -0.00000000000E+00 -0.00000000000E+00 -0.46891862517E+00  0.46892555862E+00  0.25500000000E-02 0. -1.
         31    1    1    2    0    0  0.40254684216E+00 -0.39241660449E+00  0.57562796859E+02  0.58045245654E+02  0.74470750000E+01 0. -1.
        -31    1    1    2    0    0 -0.40254684216E+00  0.39241660449E+00  0.61010249402E+02  0.61465644818E+02  0.74470750000E+01 0. -1.
<mgrwt>
<rscale>  0 0.14942745E+02</rscale>
<asrwt>0</asrwt>
<pdfrwt beam="1">  1        2 0.98819966E+00 0.14942745E+02</pdfrwt>
<pdfrwt beam="2">  1       -2 0.99591089E+00 0.14942745E+02</pdfrwt>
<totfact>-0.20613596E-13</totfact>
</mgrwt>
</event>
<event>
 4    1  0.5010510E-019  0.1490034E+02  0.7818608E-02  0.1871125E+00
         -2   -1    0    0    0  501 -0.00000000000E+00  0.00000000000E+00  0.11808447927E+03  0.11808447930E+03  0.25500000000E-02 0. -1.
          2   -1    0    0  501    0  0.00000000000E+00 -0.00000000000E+00 -0.47004194296E+00  0.47004885984E+00  0.25500000000E-02 0.  1.
         31    1    1    2    0    0  0.34633736188E-02 -0.17559367098E+00  0.59791335464E+02  0.60253577219E+02  0.74470750000E+01 0. -1.
        -31    1    1    2    0    0 -0.34633736188E-02  0.17559367098E+00  0.57823101865E+02  0.58300950940E+02  0.74470750000E+01 0. -1.
<mgrwt>
<rscale>  0 0.14900345E+02</rscale>
<asrwt>0</asrwt>
<pdfrwt beam="2">  1        2 0.99825539E+00 0.14900345E+02</pdfrwt>
<pdfrwt beam="1">  1       -2 0.98029179E+00 0.14900345E+02</pdfrwt>
<totfact> 0.66331154E-13</totfact>
</mgrwt>
</event>
<event>
 4    1 -0.5010510E-019  0.1490261E+02  0.7818608E-02  0.1871055E+00
          2   -1    0    0  501    0  0.00000000000E+00  0.00000000000E+00  0.11861111017E+03  0.11861111020E+03  0.25500000000E-02 0.  1.
         -2   -1    0    0    0  501 -0.00000000000E+00 -0.00000000000E+00 -0.46809737750E+00  0.46810432312E+00  0.25500000000E-02 0. -1.
         31    1    1    2    0    0 -0.18003515362E-01  0.16415821424E+00  0.60582674878E+02  0.61038894924E+02  0.74470750000E+01 0. -1.
        -31    1    1    2    0    0  0.18003515362E-01 -0.16415821424E+00  0.57560337914E+02  0.58040319597E+02  0.74470750000E+01 0.  1.
<mgrwt>
<rscale>  0 0.14902612E+02</rscale>
<asrwt>0</asrwt>
<pdfrwt beam="1">  1        2 0.98463026E+00 0.14902612E+02</pdfrwt>
<pdfrwt beam="2">  1       -2 0.99415940E+00 0.14902612E+02</pdfrwt>
<totfact>-0.36430256E-13</totfact>
</mgrwt>
</event>
<event>
 4    1  0.5010510E-019  0.1490295E+02  0.7818608E-02  0.1871045E+00
          2   -1    0    0  501    0  0.00000000000E+00  0.00000000000E+00  0.12035033571E+03  0.12035033574E+03  0.25500000000E-02 0. -1.
         -2   -1    0    0    0  501 -0.00000000000E+00 -0.00000000000E+00 -0.46135356910E+00  0.46136061624E+00  0.25500000000E-02 0.  1.
         31    1    1    2    0    0  0.40381445041E-01  0.20160744727E+00  0.61181425047E+02  0.61633334918E+02  0.74470750000E+01 0.  1.
        -31    1    1    2    0    0 -0.40381445041E-01 -0.20160744727E+00  0.58707557094E+02  0.59178361436E+02  0.74470750000E+01 0.  1.
<mgrwt>
<rscale>  0 0.14902951E+02</rscale>
<asrwt>0</asrwt>
<pdfrwt beam="1">  1        2 0.99895563E+00 0.14902951E+02</pdfrwt>
<pdfrwt beam="2">  1       -2 0.97994727E+00 0.14902951E+02</pdfrwt>
<totfact> 0.45502500E-13</totfact>
</mgrwt>
</event>
<event>
 4    1  0.5010510E-019  0.1490826E+02  0.7818608E-02  0.1870881E+00
         -2   -1    0    0    0  501 -0.00000000000E+00  0.00000000000E+00  0.11824317431E+03  0.11824317434E+03  0.25500000000E-02 0. -1.
          2   -1    0    0  501    0  0.00000000000E+00 -0.00000000000E+00 -0.46990999695E+00  0.46991691578E+00  0.25500000000E-02 0.  1.
         31    1    1    2    0    0  0.23420117673E+00 -0.18548121973E+00  0.59890162527E+02  0.60352131255E+02  0.74470750000E+01 0. -1.
        -31    1    1    2    0    0 -0.23420117673E+00  0.18548121973E+00  0.57883101788E+02  0.58360960000E+02  0.74470750000E+01 0.  1.
<mgrwt>
<rscale>  0 0.14908261E+02</rscale>
<asrwt>0</asrwt>
<pdfrwt beam="2">  1        2 0.99798159E+00 0.14908261E+02</pdfrwt>
<pdfrwt beam="1">  1       -2 0.98160290E+00 0.14908261E+02</pdfrwt>
<totfact> 0.58669903E-13</totfact>
</mgrwt>
</event>
<event>
 4    1  0.5010510E-019  0.1492413E+02  0.7818608E-02  0.1870393E+00
          2   -1    0    0  501    0  0.00000000000E+00  0.00000000000E+00  0.12001579317E+03  0.12001579320E+03  0.25500000000E-02 0.  1.
         -2   -1    0    0    0  501 -0.00000000000E+00 -0.00000000000E+00 -0.46395549722E+00  0.46396250484E+00  0.25500000000E-02 0. -1.
         31    1    1    2    0    0  0.14494495959E-01  0.47139625438E+00  0.59513063546E+02  0.59979047035E+02  0.74470750000E+01 0. -1.
        -31    1    1    2    0    0 -0.14494495959E-01 -0.47139625438E+00  0.60038774125E+02  0.60500708666E+02  0.74470750000E+01 0. -1.
<mgrwt>
<rscale>  0 0.14924130E+02</rscale>
<asrwt>0</asrwt>
<pdfrwt beam="1">  1        2 0.99621092E+00 0.14924130E+02</pdfrwt>
<pdfrwt beam="2">  1       -2 0.98544209E+00 0.14924130E+02</pdfrwt>
<totfact> 0.36500089E-13</totfact>
</mgrwt>
</event>
<event>
 4    1 -0.5010510E-019  0.1493791E+02  0.7818608E-02  0.1869969E+00
          2   -1    0    0  501    0  0.00000000000E+00  0.00000000000E+00  0.11908940516E+03  0.11908940519E+03  0.25500000000E-02 0. -1.
         -2   -1    0    0    0  501 -0.00000000000E+00 -0.00000000000E+00 -0.46842871166E+00  0.46843565237E+00  0.25500000000E-02 0.  1.
         31    1    1    2    0    0  0.14229476811E+00 -0.48390018571E+00  0.61457793702E+02  0.61909399448E+02  0.74470750000E+01 0.  1.
        -31    1    1    2    0    0 -0.14229476811E+00  0.48390018571E+00  0.57163182750E+02  0.57648441396E+02  0.74470750000E+01 0.  1.
<mgrwt>
<rscale>  0 0.14937913E+02</rscale>
<asrwt>0</asrwt>
<pdfrwt beam="1">  1        2 0.98858788E+00 0.14937913E+02</pdfrwt>
<pdfrwt beam="2">  1       -2 0.99487603E+00 0.14937913E+02</pdfrwt>
<totfact>-0.20801960E-13</totfact>
</mgrwt>
</event>
<event>
 4    1 -0.5010510E-019  0.1497015E+02  0.7818608E-02  0.1868981E+00
          2   -1    0    0  501    0  0.00000000000E+00  0.00000000000E+00  0.11971197704E+03  0.11971197707E+03  0.25500000000E-02 0. -1.
         -2   -1    0    0    0  501 -0.00000000000E+00 -0.00000000000E+00 -0.46800590096E+00  0.46801284793E+00  0.25500000000E-02 0.  1.
         31    1    1    2    0    0  0.91344865504E-01 -0.18000241547E+00  0.65447995484E+02  0.65870629143E+02  0.74470750000E+01 0. -1.
        -31    1    1    2    0    0 -0.91344865504E-01  0.18000241547E+00  0.53795975660E+02  0.54309360778E+02  0.74470750000E+01 0.  1.
<mgrwt>
<rscale>  0 0.14970148E+02</rscale>
<asrwt>0</asrwt>
<pdfrwt beam="1">  1        2 0.99373224E+00 0.14970148E+02</pdfrwt>
<pdfrwt beam="2">  1       -2 0.99400181E+00 0.14970148E+02</pdfrwt>
<totfact>-0.13054984E-13</totfact>
</mgrwt>
</event>
<event>
 4    1  0.5010510E-019  0.1492225E+02  0.7818608E-02  0.1870450E+00
         -2   -1    0    0    0  501 -0.00000000000E+00  0.00000000000E+00  0.11844600069E+03  0.11844600072E+03  0.25500000000E-02 0.  1.
          2   -1    0    0  501    0  0.00000000000E+00 -0.00000000000E+00 -0.46998610562E+00  0.46999302332E+00  0.25500000000E-02 0. -1.
         31    1    1    2    0    0 -0.24529599014E+00 -0.19810304688E-01  0.62063053965E+02  0.62508736638E+02  0.74470750000E+01 0.  1.
        -31    1    1    2    0    0  0.24529599014E+00  0.19810304688E-01  0.55912960622E+02  0.56407257105E+02  0.74470750000E+01 0. -1.
<mgrwt>
<rscale>  0 0.14922250E+02</rscale>
<asrwt>0</asrwt>
<pdfrwt beam="2">  1        2 0.99814935E+00 0.14922250E+02</pdfrwt>
<pdfrwt beam="1">  1       -2 0.98328064E+00 0.14922250E+02</pdfrwt>
<totfact> 0.38649438E-13</totfact>
</mgrwt>
</event>
<event>
 4    1 -0.5010510E-019  0.1494393E+02  0.7818608E-02  0.1869784E+00
          2   -1    0    0  501    0  0.00000000000E+00  0.00000000000E+00  0.11887051820E+03  0.11887051823E+03  0.25500000000E-02 0.  1.
         -2   -1    0    0    0  501 -0.00000000000E+00 -0.00000000000E+00 -0.46966940342E+00  0.46967632579E+00  0.25500000000E-02 0. -1.
         31    1    1    2    0    0 -0.11487524273E+00 -0.44343084499E+00  0.62409775888E+02  0.62854187447E+02  0.74470750000E+01 0.  1.
        -31    1    1    2    0    0  0.11487524273E+00  0.44343084499E+00  0.55991072913E+02  0.56486007110E+02  0.74470750000E+01 0. -1.
<mgrwt>
<rscale>  0 0.14943930E+02</rscale>
<asrwt>0</asrwt>
<pdfrwt beam="1">  1        2 0.98678823E+00 0.14943930E+02</pdfrwt>
<pdfrwt beam="2">  1       -2 0.99749348E+00 0.14943930E+02</pdfrwt>
<totfact>-0.18628255E-13</totfact>
</mgrwt>
</event>
<event>
 4    1  0.5010510E-019  0.1491317E+02  0.7818608E-02  0.1870730E+00
         -2   -1    0    0    0  501 -0.00000000000E+00  0.00000000000E+00  0.11834893344E+03  0.11834893347E+03  0.25500000000E-02 0.  1.
          2   -1    0    0  501    0  0.00000000000E+00 -0.00000000000E+00 -0.46979952759E+00  0.46980644804E+00  0.25500000000E-02 0. -1.
         31    1    1    2    0    0  0.97458430883E-01  0.17055893890E+00  0.61498707835E+02  0.61948273421E+02  0.74470750000E+01 0.  1.
        -31    1    1    2    0    0 -0.97458430883E-01 -0.17055893890E+00  0.56380426076E+02  0.56870466492E+02  0.74470750000E+01 0. -1.
<mgrwt>
<rscale>  0 0.14913173E+02</rscale>
<asrwt>0</asrwt>
<pdfrwt beam="2">  1        2 0.99775144E+00 0.14913173E+02</pdfrwt>
<pdfrwt beam="1">  1       -2 0.98247647E+00 0.14913173E+02</pdfrwt>
<totfact> 0.53512874E-13</totfact>
</mgrwt>
</event>
<event>
 4    1  0.5010510E-019  0.1493287E+02  0.7818608E-02  0.1870124E+00
          2   -1    0    0  501    0  0.00000000000E+00  0.00000000000E+00  0.12045632770E+03  0.12045632773E+03  0.25500000000E-02 0.  1.
         -2   -1    0    0    0  501 -0.00000000000E+00 -0.00000000000E+00 -0.46280037451E+00  0.46280739963E+00  0.25500000000E-02 0. -1.
         31    1    1    2    0    0 -0.61518465172E-01 -0.43204180643E-01  0.64305088376E+02  0.64734913055E+02  0.74470750000E+01 0.  1.
        -31    1    1    2    0    0  0.61518465172E-01  0.43204180643E-01  0.55688438953E+02  0.56184222075E+02  0.74470750000E+01 0. -1.
<mgrwt>
<rscale>  0 0.14932871E+02</rscale>
<asrwt>0</asrwt>
<pdfrwt beam="1">  1        2 0.99984401E+00 0.14932871E+02</pdfrwt>
<pdfrwt beam="2">  1       -2 0.98301188E+00 0.14932871E+02</pdfrwt>
<totfact> 0.41727542E-14</totfact>
</mgrwt>
</event>
<event>
 4    1 -0.5010510E-019  0.1499467E+02  0.7818608E-02  0.1868231E+00
         -2   -1    0    0    0  501 -0.00000000000E+00  0.00000000000E+00  0.11972942488E+03  0.11972942491E+03  0.25500000000E-02 0.  1.
          2   -1    0    0  501    0  0.00000000000E+00 -0.00000000000E+00 -0.46947187677E+00  0.46947880206E+00  0.25500000000E-02 0. -1.
         31    1    1    2    0    0  0.10826816973E+00 -0.80661354896E+00  0.57242007503E+02  0.57730136813E+02  0.74470750000E+01 0. -1.
        -31    1    1    2    0    0 -0.10826816973E+00  0.80661354896E+00  0.62017945501E+02  0.62468766897E+02  0.74470750000E+01 0.  1.
<mgrwt>
<rscale>  0 0.14994668E+02</rscale>
<asrwt>0</asrwt>
<pdfrwt beam="2">  1        2 0.99710377E+00 0.14994668E+02</pdfrwt>
<pdfrwt beam="1">  1       -2 0.99388863E+00 0.14994668E+02</pdfrwt>
<totfact>-0.83447037E-14</totfact>
</mgrwt>
</event>
<event>
 4    1 -0.5010510E-019  0.1498272E+02  0.7818608E-02  0.1868596E+00
         -2   -1    0    0    0  501 -0.00000000000E+00  0.00000000000E+00  0.11979142348E+03  0.11979142351E+03  0.25500000000E-02 0.  1.
          2   -1    0    0  501    0  0.00000000000E+00 -0.00000000000E+00 -0.46848129719E+00  0.46848823712E+00  0.25500000000E-02 0. -1.
         31    1    1    2    0    0 -0.45816711326E+00 -0.27133938171E+00  0.64596295194E+02  0.65026331752E+02  0.74470750000E+01 0.  1.
        -31    1    1    2    0    0  0.45816711326E+00  0.27133938171E+00  0.54726646989E+02  0.55233579994E+02  0.74470750000E+01 0.  1.
<mgrwt>
<rscale>  0 0.14982718E+02</rscale>
<asrwt>0</asrwt>
<pdfrwt beam="2">  1        2 0.99501013E+00 0.14982718E+02</pdfrwt>
<pdfrwt beam="1">  1       -2 0.99439309E+00 0.14982718E+02</pdfrwt>
<totfact>-0.11882485E-13</totfact>
</mgrwt>
</event>
<event>
 4    1 -0.5010510E-019  0.1489559E+02  0.7818608E-02  0.1871271E+00
          2   -1    0    0  501    0  0.00000000000E+00  0.00000000000E+00  0.11861242339E+03  0.11861242342E+03  0.25500000000E-02 0. -1.
         -2   -1    0    0    0  501 -0.00000000000E+00 -0.00000000000E+00 -0.46765105781E+00  0.46765801006E+00  0.25500000000E-02 0.  1.
         31    1    1    2    0    0  0.53105468608E-01  0.88772628899E-01  0.59042462243E+02  0.59510351827E+02  0.74470750000E+01 0. -1.
        -31    1    1    2    0    0 -0.53105468608E-01 -0.88772628899E-01  0.59102310090E+02  0.59569729601E+02  0.74470750000E+01 0.  1.
<mgrwt>
<rscale>  0 0.14895589E+02</rscale>
<asrwt>0</asrwt>
<pdfrwt beam="1">  1        2 0.98463743E+00 0.14895589E+02</pdfrwt>
<pdfrwt beam="2">  1       -2 0.99321527E+00 0.14895589E+02</pdfrwt>
<totfact>-0.33141991E-13</totfact>
</mgrwt>
</event>
<event>
 4    1  0.5010510E-019  0.1491390E+02  0.7818608E-02  0.1870707E+00
          2   -1    0    0  501    0  0.00000000000E+00  0.00000000000E+00  0.12022289153E+03  0.12022289156E+03  0.25500000000E-02 0.  1.
         -2   -1    0    0    0  501 -0.00000000000E+00 -0.00000000000E+00 -0.46252128765E+00  0.46252831700E+00  0.25500000000E-02 0. -1.
         31    1    1    2    0    0  0.29632154822E+00  0.19115564458E+00  0.58658313961E+02  0.59130204378E+02  0.74470750000E+01 0.  1.
        -31    1    1    2    0    0 -0.29632154822E+00 -0.19115564458E+00  0.61102056279E+02  0.61555215495E+02  0.74470750000E+01 0. -1.
<mgrwt>
<rscale>  0 0.14913896E+02</rscale>
<asrwt>0</asrwt>
<pdfrwt beam="1">  1        2 0.99791149E+00 0.14913896E+02</pdfrwt>
<pdfrwt beam="2">  1       -2 0.98241407E+00 0.14913896E+02</pdfrwt>
<totfact> 0.51249526E-13</totfact>
</mgrwt>
</event>
<event>
 4    1 -0.5010510E-019  0.1491341E+02  0.7818608E-02  0.1870722E+00
          2   -1    0    0  501    0  0.00000000000E+00  0.00000000000E+00  0.11890187492E+03  0.11890187495E+03  0.25500000000E-02 0.  1.
         -2   -1    0    0    0  501 -0.00000000000E+00 -0.00000000000E+00 -0.46762942989E+00  0.46763638246E+00  0.25500000000E-02 0. -1.
         31    1    1    2    0    0 -0.33932633334E-01 -0.35703809015E+00  0.58240780843E+02  0.58716063449E+02  0.74470750000E+01 0.  1.
        -31    1    1    2    0    0  0.33932633334E-01  0.35703809015E+00  0.60193464648E+02  0.60653447882E+02  0.74470750000E+01 0.  1.
<mgrwt>
<rscale>  0 0.14913408E+02</rscale>
<asrwt>0</asrwt>
<pdfrwt beam="1">  1        2 0.98703064E+00 0.14913408E+02</pdfrwt>
<pdfrwt beam="2">  1       -2 0.99317901E+00 0.14913408E+02</pdfrwt>
<totfact>-0.22762380E-13</totfact>
</mgrwt>
</event>
<event>
 4    1 -0.5010510E-019  0.1501371E+02  0.7818608E-02  0.1867650E+00
          2   -1    0    0  501    0  0.00000000000E+00  0.00000000000E+00  0.11983757661E+03  0.11983757664E+03  0.25500000000E-02 0.  1.
         -2   -1    0    0    0  501 -0.00000000000E+00 -0.00000000000E+00 -0.47024024031E+00  0.47024715428E+00  0.25500000000E-02 0. -1.
         31    1    1    2    0    0  0.73815252234E-01 -0.92934834139E+00  0.60945721982E+02  0.61406099786E+02  0.74470750000E+01 0.  1.
        -31    1    1    2    0    0 -0.73815252234E-01  0.92934834139E+00  0.58421614392E+02  0.58901724009E+02  0.74470750000E+01 0. -1.
<mgrwt>
<rscale>  0 0.15013710E+02</rscale>
<asrwt>0</asrwt>
<pdfrwt beam="1">  1        2 0.99478926E+00 0.15013710E+02</pdfrwt>
<pdfrwt beam="2">  1       -2 0.99873280E+00 0.15013710E+02</pdfrwt>
<totfact>-0.49098222E-14</totfact>
</mgrwt>
</event>
<event>
 4    1 -0.5010510E-019  0.1497732E+02  0.7818608E-02  0.1868761E+00
          2   -1    0    0  501    0  0.00000000000E+00  0.00000000000E+00  0.11994767397E+03  0.11994767400E+03  0.25500000000E-02 0. -1.
         -2   -1    0    0    0  501 -0.00000000000E+00 -0.00000000000E+00 -0.46753375602E+00  0.46754071001E+00  0.25500000000E-02 0.  1.
         31    1    1    2    0    0  0.66368970665E+00 -0.40148488552E+00  0.60860082142E+02  0.61318922027E+02  0.74470750000E+01 0. -1.
        -31    1    1    2    0    0 -0.66368970665E+00  0.40148488552E+00  0.58620058071E+02  0.59096292680E+02  0.74470750000E+01 0.  1.
<mgrwt>
<rscale>  0 0.14977317E+02</rscale>
<asrwt>0</asrwt>
<pdfrwt beam="1">  1        2 0.99567725E+00 0.14977317E+02</pdfrwt>
<pdfrwt beam="2">  1       -2 0.99301052E+00 0.14977317E+02</pdfrwt>
<totfact>-0.95893827E-14</totfact>
</mgrwt>
</event>
<event>
 4    1 -0.5010510E-019  0.1496400E+02  0.7818608E-02  0.1869169E+00
          2   -1    0    0  501    0  0.00000000000E+00  0.00000000000E+00  0.11944554135E+03  0.11944554138E+03  0.25500000000E-02 0.  1.
         -2   -1    0    0    0  501 -0.00000000000E+00 -0.00000000000E+00 -0.46866466513E+00  0.46867160234E+00  0.25500000000E-02 0. -1.
         31    1    1    2    0    0  0.40418895774E+00 -0.59162352220E+00  0.58771282867E+02  0.59245556821E+02  0.74470750000E+01 0. -1.
        -31    1    1    2    0    0 -0.40418895774E+00  0.59162352220E+00  0.60205593820E+02  0.60668656161E+02  0.74470750000E+01 0. -1.
<mgrwt>
<rscale>  0 0.14964000E+02</rscale>
<asrwt>0</asrwt>
<pdfrwt beam="1">  1        2 0.99153461E+00 0.14964000E+02</pdfrwt>
<pdfrwt beam="2">  1       -2 0.99538683E+00 0.14964000E+02</pdfrwt>
<totfact>-0.15445241E-13</totfact>
</mgrwt>
</event>
<event>
 4    1 -0.5010510E-019  0.1494549E+02  0.7818608E-02  0.1869737E+00
          2   -1    0    0  501    0  0.00000000000E+00  0.00000000000E+00  0.11871062607E+03  0.11871062610E+03  0.25500000000E-02 0. -1.
         -2   -1    0    0    0  501 -0.00000000000E+00 -0.00000000000E+00 -0.47040006466E+00  0.47040697628E+00  0.25500000000E-02 0.  1.
         31    1    1    2    0    0  0.10856301312E+00 -0.51571932046E+00  0.61706829567E+02  0.62156813734E+02  0.74470750000E+01 0. -1.
        -31    1    1    2    0    0 -0.10856301312E+00  0.51571932046E+00  0.56533396441E+02  0.57024219342E+02  0.74470750000E+01 0.  1.
<mgrwt>
<rscale>  0 0.14945488E+02</rscale>
<asrwt>0</asrwt>
<pdfrwt beam="1">  1        2 0.98547217E+00 0.14945488E+02</pdfrwt>
<pdfrwt beam="2">  1       -2 0.99903383E+00 0.14945488E+02</pdfrwt>
<totfact>-0.10135954E-13</totfact>
</mgrwt>
</event>
<event>
 4    1 -0.5010510E-019  0.1493304E+02  0.7818608E-02  0.1870119E+00
          2   -1    0    0  501    0  0.00000000000E+00  0.00000000000E+00  0.11861968887E+03  0.11861968890E+03  0.25500000000E-02 0. -1.
         -2   -1    0    0    0  501 -0.00000000000E+00 -0.00000000000E+00 -0.46997673329E+00  0.46998365113E+00  0.25500000000E-02 0.  1.
         31    1    1    2    0    0 -0.25738894649E+00 -0.46570453480E+00  0.58414737787E+02  0.58889928227E+02  0.74470750000E+01 0. -1.
        -31    1    1    2    0    0  0.25738894649E+00  0.46570453480E+00  0.59734974353E+02  0.60199744325E+02  0.74470750000E+01 0. -1.
<mgrwt>
<rscale>  0 0.14933038E+02</rscale>
<asrwt>0</asrwt>
<pdfrwt beam="1">  1        2 0.98471674E+00 0.14933038E+02</pdfrwt>
<pdfrwt beam="2">  1       -2 0.99813530E+00 0.14933038E+02</pdfrwt>
<totfact>-0.20406361E-13</totfact>
</mgrwt>
</event>
<event>
 4    1  0.5010510E-019  0.1491011E+02  0.7818608E-02  0.1870824E+00
          2   -1    0    0  501    0  0.00000000000E+00  0.00000000000E+00  0.11971104074E+03  0.11971104077E+03  0.25500000000E-02 0.  1.
         -2   -1    0    0    0  501 -0.00000000000E+00 -0.00000000000E+00 -0.46426326456E+00  0.46427026754E+00  0.25500000000E-02 0. -1.
         31    1    1    2    0    0  0.29966253070E+00 -0.17062670386E+00  0.59584033455E+02  0.60048604313E+02  0.74470750000E+01 0.  1.
        -31    1    1    2    0    0 -0.29966253070E+00  0.17062670386E+00  0.59662744018E+02  0.60126706719E+02  0.74470750000E+01 0. -1.
<mgrwt>
<rscale>  0 0.14910112E+02</rscale>
<asrwt>0</asrwt>
<pdfrwt beam="1">  1        2 0.99369355E+00 0.14910112E+02</pdfrwt>
<pdfrwt beam="2">  1       -2 0.98608359E+00 0.14910112E+02</pdfrwt>
<totfact> 0.38891689E-13</totfact>
</mgrwt>
</event>
<event>
 4    1  0.5010510E-019  0.1489847E+02  0.7818608E-02  0.1871183E+00
          2   -1    0    0  501    0  0.00000000000E+00  0.00000000000E+00  0.12012134913E+03  0.12012134916E+03  0.25500000000E-02 0. -1.
         -2   -1    0    0    0  501 -0.00000000000E+00 -0.00000000000E+00 -0.46195524208E+00  0.46196228005E+00  0.25500000000E-02 0.  1.
         31    1    1    2    0    0  0.16967225918E+00  0.57037996345E-01  0.59927095582E+02  0.60388308082E+02  0.74470750000E+01 0. -1.
        -31    1    1    2    0    0 -0.16967225918E+00 -0.57037996345E-01  0.59732298306E+02  0.60195003356E+02  0.74470750000E+01 0. -1.
<mgrwt>
<rscale>  0 0.14898471E+02</rscale>
<asrwt>0</asrwt>
<pdfrwt beam="1">  1        2 0.99706719E+00 0.14898471E+02</pdfrwt>
<pdfrwt beam="2">  1       -2 0.98121321E+00 0.14898471E+02</pdfrwt>
<totfact> 0.82988699E-13</totfact>
</mgrwt>
</event>
<event>
 4    1  0.5010510E-019  0.1492204E+02  0.7818608E-02  0.1870457E+00
         -2   -1    0    0    0  501 -0.00000000000E+00  0.00000000000E+00  0.11867834691E+03  0.11867834694E+03  0.25500000000E-02 0. -1.
          2   -1    0    0  501    0  0.00000000000E+00 -0.00000000000E+00 -0.46905261107E+00  0.46905954255E+00  0.25500000000E-02 0.  1.
         31    1    1    2    0    0 -0.30477041514E+00 -0.33902014632E+00  0.59165110413E+02  0.59633690443E+02  0.74470750000E+01 0.  1.
        -31    1    1    2    0    0  0.30477041514E+00  0.33902014632E+00  0.59044183889E+02  0.59513716039E+02  0.74470750000E+01 0.  1.
<mgrwt>
<rscale>  0 0.14922038E+02</rscale>
<asrwt>0</asrwt>
<pdfrwt beam="2">  1        2 0.99618235E+00 0.14922038E+02</pdfrwt>
<pdfrwt beam="1">  1       -2 0.98519412E+00 0.14922038E+02</pdfrwt>
<totfact> 0.39468631E-13</totfact>
</mgrwt>
</event>
<event>
 4    1  0.5010510E-019  0.1491887E+02  0.7818608E-02  0.1870554E+00
          2   -1    0    0  501    0  0.00000000000E+00  0.00000000000E+00  0.12029482598E+03  0.12029482601E+03  0.25500000000E-02 0.  1.
         -2   -1    0    0    0  501 -0.00000000000E+00 -0.00000000000E+00 -0.46255313567E+00  0.46256016454E+00  0.25500000000E-02 0. -1.
         31    1    1    2    0    0  0.36015102822E+00 -0.18794606876E+00  0.61038191814E+02  0.61492152495E+02  0.74470750000E+01 0.  1.
        -31    1    1    2    0    0 -0.36015102822E+00  0.18794606876E+00  0.58794081035E+02  0.59265233681E+02  0.74470750000E+01 0. -1.
<mgrwt>
<rscale>  0 0.14918871E+02</rscale>
<asrwt>0</asrwt>
<pdfrwt beam="1">  1        2 0.99850656E+00 0.14918871E+02</pdfrwt>
<pdfrwt beam="2">  1       -2 0.98248370E+00 0.14918871E+02</pdfrwt>
<totfact> 0.38581283E-13</totfact>
</mgrwt>
</event>
<event>
 4    1 -0.5010510E-019  0.1491250E+02  0.7818608E-02  0.1870750E+00
         -2   -1    0    0    0  501 -0.00000000000E+00  0.00000000000E+00  0.11984149614E+03  0.11984149617E+03  0.25500000000E-02 0.  1.
          2   -1    0    0  501    0  0.00000000000E+00 -0.00000000000E+00 -0.46390640904E+00  0.46391341740E+00  0.25500000000E-02 0. -1.
         31    1    1    2    0    0 -0.14131676693E+00 -0.21562444997E+00  0.61827360600E+02  0.62274777471E+02  0.74470750000E+01 0. -1.
        -31    1    1    2    0    0  0.14131676693E+00  0.21562444997E+00  0.57550229131E+02  0.58030632113E+02  0.74470750000E+01 0. -1.
<mgrwt>
<rscale>  0 0.14912500E+02</rscale>
<asrwt>0</asrwt>
<pdfrwt beam="2">  1        2 0.98533271E+00 0.14912500E+02</pdfrwt>
<pdfrwt beam="1">  1       -2 0.99476930E+00 0.14912500E+02</pdfrwt>
<totfact>-0.32993035E-13</totfact>
</mgrwt>
</event>
<event>
 4    1 -0.5010510E-019  0.1498910E+02  0.7818608E-02  0.1868401E+00
          2   -1    0    0  501    0  0.00000000000E+00  0.00000000000E+00  0.11948485983E+03  0.11948485985E+03  0.25500000000E-02 0. -1.
         -2   -1    0    0    0  501 -0.00000000000E+00 -0.00000000000E+00 -0.47008349456E+00  0.47009041084E+00  0.25500000000E-02 0.  1.
         31    1    1    2    0    0  0.21044487997E+00  0.68799327131E-01  0.53004245325E+02  0.53525302138E+02  0.74470750000E+01 0.  1.
        -31    1    1    2    0    0 -0.21044487997E+00 -0.68799327131E-01  0.66010531008E+02  0.66429648128E+02  0.74470750000E+01 0. -1.
<mgrwt>
<rscale>  0 0.14989100E+02</rscale>
<asrwt>0</asrwt>
<pdfrwt beam="1">  1        2 0.99187146E+00 0.14989100E+02</pdfrwt>
<pdfrwt beam="2">  1       -2 0.99838968E+00 0.14989100E+02</pdfrwt>
<totfact>-0.75888372E-14</totfact>
</mgrwt>
</event>
<event>
 4    1 -0.5010510E-019  0.1492797E+02  0.7818608E-02  0.1870274E+00
         -2   -1    0    0    0  501 -0.00000000000E+00  0.00000000000E+00  0.11985378676E+03  0.11985378679E+03  0.25500000000E-02 0. -1.
          2   -1    0    0  501    0  0.00000000000E+00 -0.00000000000E+00 -0.46482181119E+00  0.46482880575E+00  0.25500000000E-02 0.  1.
         31    1    1    2    0    0 -0.33171473861E+00  0.34279703525E+00  0.58430172114E+02  0.58904766223E+02  0.74470750000E+01 0.  1.
        -31    1    1    2    0    0  0.33171473861E+00 -0.34279703525E+00  0.60958792835E+02  0.61413849370E+02  0.74470750000E+01 0. -1.
<mgrwt>
<rscale>  0 0.14927971E+02</rscale>
<asrwt>0</asrwt>
<pdfrwt beam="2">  1        2 0.98726987E+00 0.14927971E+02</pdfrwt>
<pdfrwt beam="1">  1       -2 0.99487850E+00 0.14927971E+02</pdfrwt>
<totfact>-0.24648061E-13</totfact>
</mgrwt>
</event>
<event>
 4    1 -0.5010510E-019  0.1494771E+02  0.7818608E-02  0.1869668E+00
         -2   -1    0    0    0  501 -0.00000000000E+00  0.00000000000E+00  0.11999346435E+03  0.11999346438E+03  0.25500000000E-02 0. -1.
          2   -1    0    0  501    0  0.00000000000E+00 -0.00000000000E+00 -0.46550960807E+00  0.46551659230E+00  0.25500000000E-02 0.  1.
         31    1    1    2    0    0 -0.19816955106E-01  0.49209482403E+00  0.62957667344E+02  0.63398496461E+02  0.74470750000E+01 0. -1.
        -31    1    1    2    0    0  0.19816955106E-01 -0.49209482403E+00  0.56570287402E+02  0.57060484512E+02  0.74470750000E+01 0.  1.
<mgrwt>
<rscale>  0 0.14947713E+02</rscale>
<asrwt>0</asrwt>
<pdfrwt beam="2">  1        2 0.98872951E+00 0.14947713E+02</pdfrwt>
<pdfrwt beam="1">  1       -2 0.99603914E+00 0.14947713E+02</pdfrwt>
<totfact>-0.19082238E-13</totfact>
</mgrwt>
</event>
<event>
 4    1 -0.5010510E-019  0.1492247E+02  0.7818608E-02  0.1870444E+00
         -2   -1    0    0    0  501 -0.00000000000E+00  0.00000000000E+00  0.11985721128E+03  0.11985721130E+03  0.25500000000E-02 0.  1.
          2   -1    0    0  501    0  0.00000000000E+00 -0.00000000000E+00 -0.46446602258E+00  0.46447302250E+00  0.25500000000E-02 0. -1.
         31    1    1    2    0    0  0.87415213895E-01 -0.18442844832E+00  0.63015438070E+02  0.63454282885E+02  0.74470750000E+01 0.  1.
        -31    1    1    2    0    0 -0.87415213895E-01  0.18442844832E+00  0.56377307185E+02  0.56867401442E+02  0.74470750000E+01 0. -1.
<mgrwt>
<rscale>  0 0.14922470E+02</rscale>
<asrwt>0</asrwt>
<pdfrwt beam="2">  1        2 0.98651722E+00 0.14922470E+02</pdfrwt>
<pdfrwt beam="1">  1       -2 0.99490387E+00 0.14922470E+02</pdfrwt>
<totfact>-0.27452001E-13</totfact>
</mgrwt>
</event>
<event>
 4    1 -0.5010510E-019  0.1492820E+02  0.7818608E-02  0.1870267E+00
         -2   -1    0    0    0  501 -0.00000000000E+00  0.00000000000E+00  0.11981693892E+03  0.11981693894E+03  0.25500000000E-02 0. -1.
          2   -1    0    0  501    0  0.00000000000E+00 -0.00000000000E+00 -0.46497893151E+00  0.46498592371E+00  0.25500000000E-02 0.  1.
         31    1    1    2    0    0 -0.42203671285E+00 -0.15531085402E+00  0.57845488065E+02  0.58324623033E+02  0.74470750000E+01 0. -1.
        -31    1    1    2    0    0  0.42203671285E+00  0.15531085402E+00  0.61506471920E+02  0.61957301834E+02  0.74470750000E+01 0. -1.
<mgrwt>
<rscale>  0 0.14928198E+02</rscale>
<asrwt>0</asrwt>
<pdfrwt beam="2">  1        2 0.98760112E+00 0.14928198E+02</pdfrwt>
<pdfrwt beam="1">  1       -2 0.99457511E+00 0.14928198E+02</pdfrwt>
<totfact>-0.23548990E-13</totfact>
</mgrwt>
</event>
<event>
 4    1 -0.5010510E-019  0.1490746E+02  0.7818608E-02  0.1870906E+00
         -2   -1    0    0    0  501 -0.00000000000E+00  0.00000000000E+00  0.11959277697E+03  0.11959277699E+03  0.25500000000E-02 0. -1.
          2   -1    0    0  501    0  0.00000000000E+00 -0.00000000000E+00 -0.46455719556E+00  0.46456419411E+00  0.25500000000E-02 0.  1.
         31    1    1    2    0    0  0.28609749813E-01 -0.11968065873E+00  0.61898776632E+02  0.62345269400E+02  0.74470750000E+01 0. -1.
        -31    1    1    2    0    0 -0.28609749813E-01  0.11968065873E+00  0.57229443138E+02  0.57712071787E+02  0.74470750000E+01 0.  1.
<mgrwt>
<rscale>  0 0.14907462E+02</rscale>
<asrwt>0</asrwt>
<pdfrwt beam="2">  1        2 0.98670170E+00 0.14907462E+02</pdfrwt>
<pdfrwt beam="1">  1       -2 0.99271810E+00 0.14907462E+02</pdfrwt>
<totfact>-0.21865691E-13</totfact>
</mgrwt>
</event>
<event>
 4    1  0.5010510E-019  0.1490210E+02  0.7818608E-02  0.1871071E+00
         -2   -1    0    0    0  501 -0.00000000000E+00  0.00000000000E+00  0.11881306941E+03  0.11881306944E+03  0.25500000000E-02 0. -1.
          2   -1    0    0  501    0  0.00000000000E+00 -0.00000000000E+00 -0.46726985967E+00  0.46727681759E+00  0.25500000000E-02 0.  1.
         31    1    1    2    0    0  0.14943031874E+00  0.26136646437E-01  0.57649054120E+02  0.58128266614E+02  0.74470750000E+01 0.  1.
        -31    1    1    2    0    0 -0.14943031874E+00 -0.26136646437E-01  0.60696745433E+02  0.61152079644E+02  0.74470750000E+01 0. -1.
<mgrwt>
<rscale>  0 0.14902105E+02</rscale>
<asrwt>0</asrwt>
<pdfrwt beam="2">  1        2 0.99241543E+00 0.14902105E+02</pdfrwt>
<pdfrwt beam="1">  1       -2 0.98629336E+00 0.14902105E+02</pdfrwt>
<totfact> 0.39694277E-13</totfact>
</mgrwt>
</event>
<event>
 4    1 -0.5010510E-019  0.1491391E+02  0.7818608E-02  0.1870707E+00
         -2   -1    0    0    0  501 -0.00000000000E+00  0.00000000000E+00  0.12008060351E+03  0.12008060354E+03  0.25500000000E-02 0. -1.
          2   -1    0    0  501    0  0.00000000000E+00 -0.00000000000E+00 -0.46307004638E+00  0.46307706741E+00  0.25500000000E-02 0.  1.
         31    1    1    2    0    0 -0.27651167393E+00 -0.22600279160E+00  0.60943029138E+02  0.61397388075E+02  0.74470750000E+01 0. -1.
        -31    1    1    2    0    0  0.27651167393E+00  0.22600279160E+00  0.58674504325E+02  0.59146292528E+02  0.74470750000E+01 0.  1.
<mgrwt>
<rscale>  0 0.14913907E+02</rscale>
<asrwt>0</asrwt>
<pdfrwt beam="2">  1        2 0.98357069E+00 0.14913907E+02</pdfrwt>
<pdfrwt beam="1">  1       -2 0.99673949E+00 0.14913907E+02</pdfrwt>
<totfact>-0.37106748E-13</totfact>
</mgrwt>
</event>
<event>
 4    1  0.5010510E-019  0.1490958E+02  0.7818608E-02  0.1870840E+00
          2   -1    0    0  501    0  0.00000000000E+00  0.00000000000E+00  0.12005679137E+03  0.12005679140E+03  0.25500000000E-02 0.  1.
         -2   -1    0    0    0  501 -0.00000000000E+00 -0.00000000000E+00 -0.46289341332E+00  0.46290043702E+00  0.25500000000E-02 0. -1.
         31    1    1    2    0    0 -0.25513781389E+00 -0.22222491342E+00  0.59613053333E+02  0.60077362900E+02  0.74470750000E+01 0.  1.
        -31    1    1    2    0    0  0.25513781389E+00  0.22222491342E+00  0.59980844622E+02  0.60442328933E+02  0.74470750000E+01 0.  1.
<mgrwt>
<rscale>  0 0.14909584E+02</rscale>
<asrwt>0</asrwt>
<pdfrwt beam="1">  1        2 0.99654114E+00 0.14909584E+02</pdfrwt>
<pdfrwt beam="2">  1       -2 0.98319622E+00 0.14909584E+02</pdfrwt>
<totfact> 0.61760619E-13</totfact>
</mgrwt>
</event>
<event>
 4    1  0.5010510E-019  0.1491860E+02  0.7818608E-02  0.1870563E+00
          2   -1    0    0  501    0  0.00000000000E+00  0.00000000000E+00  0.12029383411E+03  0.12029383413E+03  0.25500000000E-02 0.  1.
         -2   -1    0    0    0  501 -0.00000000000E+00 -0.00000000000E+00 -0.46254010384E+00  0.46254713291E+00  0.25500000000E-02 0. -1.
         31    1    1    2    0    0 -0.24952430356E+00 -0.34520236541E+00  0.59687356678E+02  0.60151649191E+02  0.74470750000E+01 0. -1.
        -31    1    1    2    0    0  0.24952430356E+00  0.34520236541E+00  0.60143937323E+02  0.60604732075E+02  0.74470750000E+01 0. -1.
<mgrwt>
<rscale>  0 0.14918599E+02</rscale>
<asrwt>0</asrwt>
<pdfrwt beam="1">  1        2 0.99849825E+00 0.14918599E+02</pdfrwt>
<pdfrwt beam="2">  1       -2 0.98245610E+00 0.14918599E+02</pdfrwt>
<totfact> 0.38983563E-13</totfact>
</mgrwt>
</event>
<event>
 4    1 -0.5010510E-019  0.1496879E+02  0.7818608E-02  0.1869022E+00
          2   -1    0    0  501    0  0.00000000000E+00  0.00000000000E+00  0.11960058015E+03  0.11960058017E+03  0.25500000000E-02 0.  1.
         -2   -1    0    0    0  501 -0.00000000000E+00 -0.00000000000E+00 -0.46835660489E+00  0.46836354666E+00  0.25500000000E-02 0. -1.
         31    1    1    2    0    0  0.24402800465E+00  0.69994120865E+00  0.60272104466E+02  0.60734956740E+02  0.74470750000E+01 0. -1.
        -31    1    1    2    0    0 -0.24402800465E+00 -0.69994120865E+00  0.58860119075E+02  0.59333986980E+02  0.74470750000E+01 0. -1.
<mgrwt>
<rscale>  0 0.14968786E+02</rscale>
<asrwt>0</asrwt>
<pdfrwt beam="1">  1        2 0.99281403E+00 0.14968786E+02</pdfrwt>
<pdfrwt beam="2">  1       -2 0.99474015E+00 0.14968786E+02</pdfrwt>
<totfact>-0.14311054E-13</totfact>
</mgrwt>
</event>
<event>
 4    1 -0.5010510E-019  0.1499614E+02  0.7818608E-02  0.1868186E+00
          2   -1    0    0  501    0  0.00000000000E+00  0.00000000000E+00  0.11953355165E+03  0.11953355168E+03  0.25500000000E-02 0. -1.
         -2   -1    0    0    0  501 -0.00000000000E+00 -0.00000000000E+00 -0.47033353392E+00  0.47034044652E+00  0.25500000000E-02 0.  1.
         31    1    1    2    0    0  0.77594054805E+00  0.14270472042E+00  0.62522375938E+02  0.62969269230E+02  0.74470750000E+01 0. -1.
        -31    1    1    2    0    0 -0.77594054805E+00 -0.14270472042E+00  0.56540842183E+02  0.57034622899E+02  0.74470750000E+01 0.  1.
<mgrwt>
<rscale>  0 0.14996140E+02</rscale>
<asrwt>0</asrwt>
<pdfrwt beam="1">  1        2 0.99227614E+00 0.14996140E+02</pdfrwt>
<pdfrwt beam="2">  1       -2 0.99892023E+00 0.14996140E+02</pdfrwt>
<totfact>-0.51757675E-14</totfact>
</mgrwt>
</event>
<event>
 4    1  0.5010510E-019  0.1495808E+02  0.7818608E-02  0.1869350E+00
         -2   -1    0    0    0  501 -0.00000000000E+00  0.00000000000E+00  0.11904105972E+03  0.11904105975E+03  0.25500000000E-02 0.  1.
          2   -1    0    0  501    0  0.00000000000E+00 -0.00000000000E+00 -0.46988505860E+00  0.46989197779E+00  0.25500000000E-02 0. -1.
         31    1    1    2    0    0  0.10284973696E+00 -0.60506297503E+00  0.61817524905E+02  0.62267503489E+02  0.74470750000E+01 0. -1.
        -31    1    1    2    0    0 -0.10284973696E+00  0.60506297503E+00  0.56753649756E+02  0.57243448237E+02  0.74470750000E+01 0.  1.
<mgrwt>
<rscale>  0 0.14958079E+02</rscale>
<asrwt>0</asrwt>
<pdfrwt beam="2">  1        2 0.99795531E+00 0.14958079E+02</pdfrwt>
<pdfrwt beam="1">  1       -2 0.98820017E+00 0.14958079E+02</pdfrwt>
<totfact> 0.75048857E-14</totfact>
</mgrwt>
</event>
<event>
 4    1  0.5010510E-019  0.1492396E+02  0.7818608E-02  0.1870398E+00
          2   -1    0    0  501    0  0.00000000000E+00  0.00000000000E+00  0.11968731002E+03  0.11968731005E+03  0.25500000000E-02 0. -1.
         -2   -1    0    0    0  501 -0.00000000000E+00 -0.00000000000E+00 -0.46521845896E+00  0.46522544756E+00  0.25500000000E-02 0.  1.
         31    1    1    2    0    0 -0.14626864872E-02 -0.36803085555E+00  0.57239181249E+02  0.57722770593E+02  0.74470750000E+01 0.  1.
        -31    1    1    2    0    0  0.14626864872E-02  0.36803085555E+00  0.61982910315E+02  0.62429764904E+02  0.74470750000E+01 0.  1.
<mgrwt>
<rscale>  0 0.14923963E+02</rscale>
<asrwt>0</asrwt>
<pdfrwt beam="1">  1        2 0.99350523E+00 0.14923963E+02</pdfrwt>
<pdfrwt beam="2">  1       -2 0.98810375E+00 0.14923963E+02</pdfrwt>
<totfact> 0.16203309E-13</totfact>
</mgrwt>
</event>
<event>
 4    1  0.5010510E-019  0.1493505E+02  0.7818608E-02  0.1870057E+00
          2   -1    0    0  501    0  0.00000000000E+00  0.00000000000E+00  0.11988182326E+03  0.11988182328E+03  0.25500000000E-02 0.  1.
         -2   -1    0    0    0  501 -0.00000000000E+00 -0.00000000000E+00 -0.46515377207E+00  0.46516076164E+00  0.25500000000E-02 0. -1.
         31    1    1    2    0    0 -0.22783717946E+00  0.35400269469E+00  0.62588453415E+02  0.63031346603E+02  0.74470750000E+01 0.  1.
        -31    1    1    2    0    0  0.22783717946E+00 -0.35400269469E+00  0.56828216070E+02  0.57315637442E+02  0.74470750000E+01 0.  1.
<mgrwt>
<rscale>  0 0.14935047E+02</rscale>
<asrwt>0</asrwt>
<pdfrwt beam="1">  1        2 0.99511307E+00 0.14935047E+02</pdfrwt>
<pdfrwt beam="2">  1       -2 0.98797310E+00 0.14935047E+02</pdfrwt>
<totfact> 0.15182344E-13</totfact>
</mgrwt>
</event>
<event>
 4    1 -0.5010510E-019  0.1492773E+02  0.7818608E-02  0.1870282E+00
         -2   -1    0    0    0  501 -0.00000000000E+00  0.00000000000E+00  0.11954613326E+03  0.11954613329E+03  0.25500000000E-02 0. -1.
          2   -1    0    0  501    0  0.00000000000E+00 -0.00000000000E+00 -0.46600285001E+00  0.46600982684E+00  0.25500000000E-02 0.  1.
         31    1    1    2    0    0 -0.46891929830E+00  0.24159854633E-01  0.60929396127E+02  0.61384612954E+02  0.74470750000E+01 0.  1.
        -31    1    1    2    0    0  0.46891929830E+00 -0.24159854633E-01  0.58150734284E+02  0.58627530161E+02  0.74470750000E+01 0.  1.
<mgrwt>
<rscale>  0 0.14927727E+02</rscale>
<asrwt>0</asrwt>
<pdfrwt beam="2">  1        2 0.98975875E+00 0.14927727E+02</pdfrwt>
<pdfrwt beam="1">  1       -2 0.99234437E+00 0.14927727E+02</pdfrwt>
<totfact>-0.13589276E-13</totfact>
</mgrwt>
</event>
<event>
 4    1  0.5010510E-019  0.1490973E+02  0.7818608E-02  0.1870836E+00
         -2   -1    0    0    0  501 -0.00000000000E+00  0.00000000000E+00  0.11843937642E+03  0.11843937645E+03  0.25500000000E-02 0. -1.
          2   -1    0    0  501    0  0.00000000000E+00 -0.00000000000E+00 -0.46922409521E+00  0.46923102415E+00  0.25500000000E-02 0.  1.
         31    1    1    2    0    0  0.11151369575E+00 -0.32117572576E+00  0.58805390714E+02  0.59276036408E+02  0.74470750000E+01 0. -1.
        -31    1    1    2    0    0 -0.11151369575E+00  0.32117572576E+00  0.59164761615E+02  0.59632571068E+02  0.74470750000E+01 0. -1.
<mgrwt>
<rscale>  0 0.14909731E+02</rscale>
<asrwt>0</asrwt>
<pdfrwt beam="2">  1        2 0.99653720E+00 0.14909731E+02</pdfrwt>
<pdfrwt beam="1">  1       -2 0.98321956E+00 0.14909731E+02</pdfrwt>
<totfact> 0.61481434E-13</totfact>
</mgrwt>
</event>
<event>
 4    1  0.5010510E-019  0.1491819E+02  0.7818608E-02  0.1870575E+00
         -2   -1    0    0    0  501 -0.00000000000E+00  0.00000000000E+00  0.11869192925E+03  0.11869192927E+03  0.25500000000E-02 0.  1.
          2   -1    0    0  501    0  0.00000000000E+00 -0.00000000000E+00 -0.46875706881E+00  0.46876400465E+00  0.25500000000E-02 0. -1.
         31    1    1    2    0    0  0.30531416315E+00 -0.27533217790E+00  0.59916121863E+02  0.60378552564E+02  0.74470750000E+01 0.  1.
        -31    1    1    2    0    0 -0.30531416315E+00  0.27533217790E+00  0.58307050313E+02  0.58782140713E+02  0.74470750000E+01 0.  1.
<mgrwt>
<rscale>  0 0.14918190E+02</rscale>
<asrwt>0</asrwt>
<pdfrwt beam="2">  1        2 0.99555760E+00 0.14918190E+02</pdfrwt>
<pdfrwt beam="1">  1       -2 0.98530398E+00 0.14918190E+02</pdfrwt>
<totfact> 0.41687731E-13</totfact>
</mgrwt>
</event>
<event>
 4    1 -0.5010510E-019  0.1494116E+02  0.7818608E-02  0.1869869E+00
         -2   -1    0    0    0  501 -0.00000000000E+00  0.00000000000E+00  0.11988558901E+03  0.11988558904E+03  0.25500000000E-02 0.  1.
          2   -1    0    0  501    0  0.00000000000E+00 -0.00000000000E+00 -0.46551999550E+00  0.46552697958E+00  0.25500000000E-02 0. -1.
         31    1    1    2    0    0  0.42079513556E+00 -0.23422673466E+00  0.56934807650E+02  0.57421800554E+02  0.74470750000E+01 0. -1.
        -31    1    1    2    0    0 -0.42079513556E+00  0.23422673466E+00  0.62485261364E+02  0.62929315461E+02  0.74470750000E+01 0.  1.
<mgrwt>
<rscale>  0 0.14941159E+02</rscale>
<asrwt>0</asrwt>
<pdfrwt beam="2">  1        2 0.98874805E+00 0.14941159E+02</pdfrwt>
<pdfrwt beam="1">  1       -2 0.99514723E+00 0.14941159E+02</pdfrwt>
<totfact>-0.20293150E-13</totfact>
</mgrwt>
</event>
<event>
 4    1  0.5010510E-019  0.1490133E+02  0.7818608E-02  0.1871094E+00
         -2   -1    0    0    0  501 -0.00000000000E+00  0.00000000000E+00  0.11859007599E+03  0.11859007602E+03  0.25500000000E-02 0.  1.
          2   -1    0    0  501    0  0.00000000000E+00 -0.00000000000E+00 -0.46810013396E+00  0.46810707954E+00  0.25500000000E-02 0. -1.
         31    1    1    2    0    0  0.15637301628E+00 -0.59003646028E-01  0.57782986238E+02  0.58261139351E+02  0.74470750000E+01 0. -1.
        -31    1    1    2    0    0 -0.15637301628E+00  0.59003646028E-01  0.60338989619E+02  0.60797043746E+02  0.74470750000E+01 0.  1.
<mgrwt>
<rscale>  0 0.14901335E+02</rscale>
<asrwt>0</asrwt>
<pdfrwt beam="2">  1        2 0.99416454E+00 0.14901335E+02</pdfrwt>
<pdfrwt beam="1">  1       -2 0.98445636E+00 0.14901335E+02</pdfrwt>
<totfact> 0.60713325E-13</totfact>
</mgrwt>
</event>
<event>
 4    1  0.5010510E-019  0.1491163E+02  0.7818608E-02  0.1870777E+00
          2   -1    0    0  501    0  0.00000000000E+00  0.00000000000E+00  0.12002020201E+03  0.12002020203E+03  0.25500000000E-02 0.  1.
         -2   -1    0    0    0  501 -0.00000000000E+00 -0.00000000000E+00 -0.46316155488E+00  0.46316857452E+00  0.25500000000E-02 0. -1.
         31    1    1    2    0    0 -0.32273707946E+00  0.60867336988E-02  0.58474546443E+02  0.58947737056E+02  0.74470750000E+01 0.  1.
        -31    1    1    2    0    0  0.32273707946E+00 -0.60867336988E-02  0.61082494008E+02  0.61535633551E+02  0.74470750000E+01 0.  1.
<mgrwt>
<rscale>  0 0.14911629E+02</rscale>
<asrwt>0</asrwt>
<pdfrwt beam="1">  1        2 0.99624081E+00 0.14911629E+02</pdfrwt>
<pdfrwt beam="2">  1       -2 0.98376240E+00 0.14911629E+02</pdfrwt>
<totfact> 0.57018751E-13</totfact>
</mgrwt>
</event>
<event>
 4    1 -0.5010510E-019  0.1496283E+02  0.7818608E-02  0.1869205E+00
         -2   -1    0    0    0  501 -0.00000000000E+00  0.00000000000E+00  0.11966330805E+03  0.11966330808E+03  0.25500000000E-02 0.  1.
          2   -1    0    0  501    0  0.00000000000E+00 -0.00000000000E+00 -0.46773860958E+00  0.46774556052E+00  0.25500000000E-02 0. -1.
         31    1    1    2    0    0  0.44455563545E+00  0.53294929573E+00  0.58184705626E+02  0.58663451650E+02  0.74470750000E+01 0.  1.
        -31    1    1    2    0    0 -0.44455563545E+00 -0.53294929573E+00  0.61010863813E+02  0.61467601986E+02  0.74470750000E+01 0. -1.
<mgrwt>
<rscale>  0 0.14962830E+02</rscale>
<asrwt>0</asrwt>
<pdfrwt beam="2">  1        2 0.99343475E+00 0.14962830E+02</pdfrwt>
<pdfrwt beam="1">  1       -2 0.99332760E+00 0.14962830E+02</pdfrwt>
<totfact>-0.12474206E-13</totfact>
</mgrwt>
</event>
<event>
 4    1 -0.5010510E-019  0.1496765E+02  0.7818608E-02  0.1869057E+00
         -2   -1    0    0    0  501 -0.00000000000E+00  0.00000000000E+00  0.11990203700E+03  0.11990203702E+03  0.25500000000E-02 0.  1.
          2   -1    0    0  501    0  0.00000000000E+00 -0.00000000000E+00 -0.46710832795E+00  0.46711528828E+00  0.25500000000E-02 0. -1.
         31    1    1    2    0    0 -0.97257460330E-01  0.65528968470E+00  0.57051815958E+02  0.57539616733E+02  0.74470750000E+01 0. -1.
        -31    1    1    2    0    0  0.97257460330E-01 -0.65528968470E+00  0.62383112709E+02  0.62829535578E+02  0.74470750000E+01 0.  1.
<mgrwt>
<rscale>  0 0.14967653E+02</rscale>
<asrwt>0</asrwt>
<pdfrwt beam="2">  1        2 0.99210900E+00 0.14967653E+02</pdfrwt>
<pdfrwt beam="1">  1       -2 0.99529637E+00 0.14967653E+02</pdfrwt>
<totfact>-0.14865800E-13</totfact>
</mgrwt>
</event>
<event>
 4    1 -0.5010510E-019  0.1500511E+02  0.7818608E-02  0.1867912E+00
          2   -1    0    0  501    0  0.00000000000E+00  0.00000000000E+00  0.12002234766E+03  0.12002234768E+03  0.25500000000E-02 0. -1.
         -2   -1    0    0    0  501 -0.00000000000E+00 -0.00000000000E+00 -0.46897889199E+00  0.46898582455E+00  0.25500000000E-02 0.  1.
         31    1    1    2    0    0  0.21779238014E+00  0.76731196067E+00  0.56246766102E+02  0.56743227121E+02  0.74470750000E+01 0.  1.
        -31    1    1    2    0    0 -0.21779238014E+00 -0.76731196067E+00  0.63306602662E+02  0.63748106386E+02  0.74470750000E+01 0. -1.
<mgrwt>
<rscale>  0 0.15005115E+02</rscale>
<asrwt>0</asrwt>
<pdfrwt beam="1">  1        2 0.99630665E+00 0.15005115E+02</pdfrwt>
<pdfrwt beam="2">  1       -2 0.99607031E+00 0.15005115E+02</pdfrwt>
<totfact>-0.93723333E-14</totfact>
</mgrwt>
</event>
<event>
 4    1  0.5010510E-019  0.1491319E+02  0.7818608E-02  0.1870729E+00
         -2   -1    0    0    0  501 -0.00000000000E+00  0.00000000000E+00  0.11893779729E+03  0.11893779732E+03  0.25500000000E-02 0.  1.
          2   -1    0    0  501    0  0.00000000000E+00 -0.00000000000E+00 -0.46747452012E+00  0.46748147499E+00  0.25500000000E-02 0. -1.
         31    1    1    2    0    0 -0.29744496453E+00  0.18316771051E-01  0.61079682669E+02  0.61532717883E+02  0.74470750000E+01 0.  1.
        -31    1    1    2    0    0  0.29744496453E+00 -0.18316771051E-01  0.57390640100E+02  0.57872560908E+02  0.74470750000E+01 0. -1.
<mgrwt>
<rscale>  0 0.14913190E+02</rscale>
<asrwt>0</asrwt>
<pdfrwt beam="2">  1        2 0.99285247E+00 0.14913190E+02</pdfrwt>
<pdfrwt beam="1">  1       -2 0.98732639E+00 0.14913190E+02</pdfrwt>
<totfact> 0.25437790E-13</totfact>
</mgrwt>
</event>
<event>
 4    1 -0.5010510E-019  0.1490653E+02  0.7818608E-02  0.1870934E+00
          2   -1    0    0  501    0  0.00000000000E+00  0.00000000000E+00  0.11861881268E+03  0.11861881271E+03  0.25500000000E-02 0. -1.
         -2   -1    0    0    0  501 -0.00000000000E+00 -0.00000000000E+00 -0.46831312255E+00  0.46832006497E+00  0.25500000000E-02 0.  1.
         31    1    1    2    0    0 -0.17667755143E-01  0.11098430211E-01  0.56654722069E+02  0.57142076389E+02  0.74470750000E+01 0.  1.
        -31    1    1    2    0    0  0.17667755143E-01 -0.11098430211E-01  0.61495777492E+02  0.61945056387E+02  0.74470750000E+01 0. -1.
<mgrwt>
<rscale>  0 0.14906530E+02</rscale>
<asrwt>0</asrwt>
<pdfrwt beam="1">  1        2 0.98469573E+00 0.14906530E+02</pdfrwt>
<pdfrwt beam="2">  1       -2 0.99461605E+00 0.14906530E+02</pdfrwt>
<totfact>-0.36551386E-13</totfact>
</mgrwt>
</event>
<event>
 4    1  0.5010510E-019  0.1492612E+02  0.7818608E-02  0.1870331E+00
          2   -1    0    0  501    0  0.00000000000E+00  0.00000000000E+00  0.12003182106E+03  0.12003182109E+03  0.25500000000E-02 0.  1.
         -2   -1    0    0    0  501 -0.00000000000E+00 -0.00000000000E+00 -0.46401724058E+00  0.46402424727E+00  0.25500000000E-02 0. -1.
         31    1    1    2    0    0  0.23841628517E+00  0.72764297393E-01  0.56395287683E+02  0.56885407056E+02  0.74470750000E+01 0. -1.
        -31    1    1    2    0    0 -0.23841628517E+00 -0.72764297393E-01  0.63172516140E+02  0.63610438283E+02  0.74470750000E+01 0.  1.
<mgrwt>
<rscale>  0 0.14926119E+02</rscale>
<asrwt>0</asrwt>
<pdfrwt beam="1">  1        2 0.99634396E+00 0.14926119E+02</pdfrwt>
<pdfrwt beam="2">  1       -2 0.98557323E+00 0.14926119E+02</pdfrwt>
<totfact> 0.34309707E-13</totfact>
</mgrwt>
</event>
<event>
 4    1 -0.5010510E-019  0.1491629E+02  0.7818608E-02  0.1870634E+00
          2   -1    0    0  501    0  0.00000000000E+00  0.00000000000E+00  0.11854281824E+03  0.11854281827E+03  0.25500000000E-02 0. -1.
         -2   -1    0    0    0  501 -0.00000000000E+00 -0.00000000000E+00 -0.46922714352E+00  0.46923407242E+00  0.25500000000E-02 0.  1.
         31    1    1    2    0    0  0.26705581522E+00  0.25827870990E+00  0.57726515980E+02  0.58206078720E+02  0.74470750000E+01 0.  1.
        -31    1    1    2    0    0 -0.26705581522E+00 -0.25827870990E+00  0.60347075114E+02  0.60805973618E+02  0.74470750000E+01 0. -1.
<mgrwt>
<rscale>  0 0.14916289E+02</rscale>
<asrwt>0</asrwt>
<pdfrwt beam="1">  1        2 0.98407492E+00 0.14916289E+02</pdfrwt>
<pdfrwt beam="2">  1       -2 0.99654708E+00 0.14916289E+02</pdfrwt>
<totfact>-0.35254402E-13</totfact>
</mgrwt>
</event>
<event>
 4    1 -0.5010510E-019  0.1496838E+02  0.7818608E-02  0.1869035E+00
          2   -1    0    0  501    0  0.00000000000E+00  0.00000000000E+00  0.11964326234E+03  0.11964326237E+03  0.25500000000E-02 0. -1.
         -2   -1    0    0    0  501 -0.00000000000E+00 -0.00000000000E+00 -0.46816440048E+00  0.46817134511E+00  0.25500000000E-02 0.  1.
         31    1    1    2    0    0  0.93493135194E-01  0.55763482821E-01  0.53678024190E+02  0.54192260126E+02  0.74470750000E+01 0.  1.
        -31    1    1    2    0    0 -0.93493135194E-01 -0.55763482821E-01  0.65497073747E+02  0.65919173584E+02  0.74470750000E+01 0. -1.
<mgrwt>
<rscale>  0 0.14968385E+02</rscale>
<asrwt>0</asrwt>
<pdfrwt beam="1">  1        2 0.99316537E+00 0.14968385E+02</pdfrwt>
<pdfrwt beam="2">  1       -2 0.99433491E+00 0.14968385E+02</pdfrwt>
<totfact>-0.13852183E-13</totfact>
</mgrwt>
</event>
<event>
 4    1 -0.5010510E-019  0.1493593E+02  0.7818608E-02  0.1870030E+00
          2   -1    0    0  501    0  0.00000000000E+00  0.00000000000E+00  0.11902249512E+03  0.11902249515E+03  0.25500000000E-02 0.  1.
         -2   -1    0    0    0  501 -0.00000000000E+00 -0.00000000000E+00 -0.46856750212E+00  0.46857444077E+00  0.25500000000E-02 0. -1.
         31    1    1    2    0    0  0.32303556358E+00 -0.34385369839E+00  0.61663344494E+02  0.62113199624E+02  0.74470750000E+01 0.  1.
        -31    1    1    2    0    0 -0.32303556358E+00  0.34385369839E+00  0.56890583127E+02  0.57377869967E+02  0.74470750000E+01 0. -1.
<mgrwt>
<rscale>  0 0.14935928E+02</rscale>
<asrwt>0</asrwt>
<pdfrwt beam="1">  1        2 0.98803577E+00 0.14935928E+02</pdfrwt>
<pdfrwt beam="2">  1       -2 0.99516745E+00 0.14935928E+02</pdfrwt>
<totfact>-0.22112187E-13</totfact>
</mgrwt>
</event>
<event>
 4    1 -0.5010510E-019  0.1490716E+02  0.7818608E-02  0.1870915E+00
          2   -1    0    0  501    0  0.00000000000E+00  0.00000000000E+00  0.11869805341E+03  0.11869805344E+03  0.25500000000E-02 0. -1.
         -2   -1    0    0    0  501 -0.00000000000E+00 -0.00000000000E+00 -0.46804028105E+00  0.46804722752E+00  0.25500000000E-02 0.  1.
         31    1    1    2    0    0  0.28068900370E+00 -0.13323590071E+00  0.59279148745E+02  0.59745903124E+02  0.74470750000E+01 0. -1.
        -31    1    1    2    0    0 -0.28068900370E+00  0.13323590071E+00  0.58950864382E+02  0.59420197539E+02  0.74470750000E+01 0. -1.
<mgrwt>
<rscale>  0 0.14907164E+02</rscale>
<asrwt>0</asrwt>
<pdfrwt beam="1">  1        2 0.98534870E+00 0.14907164E+02</pdfrwt>
<pdfrwt beam="2">  1       -2 0.99404148E+00 0.14907164E+02</pdfrwt>
<totfact>-0.32211436E-13</totfact>
</mgrwt>
</event>
<event>
 4    1 -0.5010510E-019  0.1492093E+02  0.7818608E-02  0.1870491E+00
         -2   -1    0    0    0  501 -0.00000000000E+00  0.00000000000E+00  0.12004295889E+03  0.12004295891E+03  0.25500000000E-02 0.  1.
          2   -1    0    0  501    0  0.00000000000E+00 -0.00000000000E+00 -0.46365133925E+00  0.46365835148E+00  0.25500000000E-02 0. -1.
         31    1    1    2    0    0  0.44633722557E+00 -0.13206204431E-01  0.59679679345E+02  0.60144180467E+02  0.74470750000E+01 0. -1.
        -31    1    1    2    0    0 -0.44633722557E+00  0.13206204431E-01  0.59899628202E+02  0.60362436797E+02  0.74470750000E+01 0.  1.
<mgrwt>
<rscale>  0 0.14920925E+02</rscale>
<asrwt>0</asrwt>
<pdfrwt beam="2">  1        2 0.98479941E+00 0.14920925E+02</pdfrwt>
<pdfrwt beam="1">  1       -2 0.99643303E+00 0.14920925E+02</pdfrwt>
<totfact>-0.31841366E-13</totfact>
</mgrwt>
</event>
<event>
 4    1  0.5010510E-019  0.1489950E+02  0.7818608E-02  0.1871151E+00
          2   -1    0    0  501    0  0.00000000000E+00  0.00000000000E+00  0.12036912802E+03  0.12036912805E+03  0.25500000000E-02 0. -1.
         -2   -1    0    0    0  501 -0.00000000000E+00 -0.00000000000E+00 -0.46106780844E+00  0.46107485995E+00  0.25500000000E-02 0.  1.
         31    1    1    2    0    0 -0.11931286589E+00  0.22897314946E-01  0.61238123780E+02  0.61689395280E+02  0.74470750000E+01 0.  1.
        -31    1    1    2    0    0  0.11931286589E+00 -0.22897314946E-01  0.58669936434E+02  0.59140807630E+02  0.74470750000E+01 0.  1.
<mgrwt>
<rscale>  0 0.14899498E+02</rscale>
<asrwt>0</asrwt>
<pdfrwt beam="1">  1        2 0.99910866E+00 0.14899498E+02</pdfrwt>
<pdfrwt beam="2">  1       -2 0.97934321E+00 0.14899498E+02</pdfrwt>
<totfact> 0.43618871E-13</totfact>
</mgrwt>
</event>
<event>
 4    1 -0.5010510E-019  0.1492333E+02  0.7818608E-02  0.1870417E+00
          2   -1    0    0  501    0  0.00000000000E+00  0.00000000000E+00  0.11835573245E+03  0.11835573248E+03  0.25500000000E-02 0.  1.
         -2   -1    0    0    0  501 -0.00000000000E+00 -0.00000000000E+00 -0.47041244236E+00  0.47041935380E+00  0.25500000000E-02 0. -1.
         31    1    1    2    0    0 -0.10665735844E+00 -0.32375958254E+00  0.61476911074E+02  0.61927261503E+02  0.74470750000E+01 0.  1.
        -31    1    1    2    0    0  0.10665735844E+00  0.32375958254E+00  0.56408408936E+02  0.56898890330E+02  0.74470750000E+01 0. -1.
<mgrwt>
<rscale>  0 0.14923327E+02</rscale>
<asrwt>0</asrwt>
<pdfrwt beam="1">  1        2 0.98253776E+00 0.14923327E+02</pdfrwt>
<pdfrwt beam="2">  1       -2 0.99904819E+00 0.14923327E+02</pdfrwt>
<totfact>-0.16264156E-13</totfact>
</mgrwt>
</event>
<event>
 4    1 -0.5010510E-019  0.1496426E+02  0.7818608E-02  0.1869161E+00
          2   -1    0    0  501    0  0.00000000000E+00  0.00000000000E+00  0.11920365938E+03  0.11920365941E+03  0.25500000000E-02 0. -1.
         -2   -1    0    0    0  501 -0.00000000000E+00 -0.00000000000E+00 -0.46963211368E+00  0.46963903660E+00  0.25500000000E-02 0.  1.
         31    1    1    2    0    0 -0.30014263169E+00  0.41648779231E+00  0.63443338359E+02  0.63880980392E+02  0.74470750000E+01 0. -1.
        -31    1    1    2    0    0  0.30014263169E+00 -0.41648779231E+00  0.55290688912E+02  0.55792318057E+02  0.74470750000E+01 0.  1.
<mgrwt>
<rscale>  0 0.14964262E+02</rscale>
<asrwt>0</asrwt>
<pdfrwt beam="1">  1        2 0.98954256E+00 0.14964262E+02</pdfrwt>
<pdfrwt beam="2">  1       -2 0.99742557E+00 0.14964262E+02</pdfrwt>
<totfact>-0.13475095E-13</totfact>
</mgrwt>
</event>
<event>
 4    1  0.5010510E-019  0.1493556E+02  0.7818608E-02  0.1870041E+00
         -2   -1    0    0    0  501 -0.00000000000E+00  0.00000000000E+00  0.11847473732E+03  0.11847473734E+03  0.25500000000E-02 0.  1.
          2   -1    0    0  501    0  0.00000000000E+00 -0.00000000000E+00 -0.47071088396E+00  0.47071779101E+00  0.25500000000E-02 0. -1.
         31    1    1    2    0    0  0.24093150099E-01  0.53796120756E+00  0.57908549577E+02  0.58387918467E+02  0.74470750000E+01 0. -1.
        -31    1    1    2    0    0 -0.24093150099E-01 -0.53796120756E+00  0.60095476855E+02  0.60557536668E+02  0.74470750000E+01 0.  1.
<mgrwt>
<rscale>  0 0.14935563E+02</rscale>
<asrwt>0</asrwt>
<pdfrwt beam="2">  1        2 0.99968347E+00 0.14935563E+02</pdfrwt>
<pdfrwt beam="1">  1       -2 0.98352424E+00 0.14935563E+02</pdfrwt>
<totfact> 0.74079783E-14</totfact>
</mgrwt>
</event>
<event>
 4    1 -0.5010510E-019  0.1496388E+02  0.7818608E-02  0.1869173E+00
          2   -1    0    0  501    0  0.00000000000E+00  0.00000000000E+00  0.11905473695E+03  0.11905473697E+03  0.25500000000E-02 0.  1.
         -2   -1    0    0    0  501 -0.00000000000E+00 -0.00000000000E+00 -0.47019536469E+00  0.47020227931E+00  0.25500000000E-02 0. -1.
         31    1    1    2    0    0  0.23816006395E+00  0.66652812831E+00  0.58177030883E+02  0.58656004197E+02  0.74470750000E+01 0.  1.
        -31    1    1    2    0    0 -0.23816006395E+00 -0.66652812831E+00  0.60407510698E+02  0.60868935055E+02  0.74470750000E+01 0.  1.
<mgrwt>
<rscale>  0 0.14963877E+02</rscale>
<asrwt>0</asrwt>
<pdfrwt beam="1">  1        2 0.98831583E+00 0.14963877E+02</pdfrwt>
<pdfrwt beam="2">  1       -2 0.99861220E+00 0.14963877E+02</pdfrwt>
<totfact>-0.93657415E-14</totfact>
</mgrwt>
</event>
<event>
 4    1  0.5010510E-019  0.1491882E+02  0.7818608E-02  0.1870556E+00
         -2   -1    0    0    0  501 -0.00000000000E+00  0.00000000000E+00  0.11890274463E+03  0.11890274465E+03  0.25500000000E-02 0. -1.
          2   -1    0    0  501    0  0.00000000000E+00 -0.00000000000E+00 -0.46796564410E+00  0.46797259168E+00  0.25500000000E-02 0.  1.
         31    1    1    2    0    0  0.22222024607E+00  0.32249545199E+00  0.60614869748E+02  0.61071881794E+02  0.74470750000E+01 0. -1.
        -31    1    1    2    0    0 -0.22222024607E+00 -0.32249545199E+00  0.57819909235E+02  0.58298835453E+02  0.74470750000E+01 0.  1.
<mgrwt>
<rscale>  0 0.14918822E+02</rscale>
<asrwt>0</asrwt>
<pdfrwt beam="2">  1        2 0.99389030E+00 0.14918822E+02</pdfrwt>
<pdfrwt beam="1">  1       -2 0.98704061E+00 0.14918822E+02</pdfrwt>
<totfact> 0.26686854E-13</totfact>
</mgrwt>
</event>
<event>
 4    1  0.5010510E-019  0.1491544E+02  0.7818608E-02  0.1870660E+00
          2   -1    0    0  501    0  0.00000000000E+00  0.00000000000E+00  0.12043381229E+03  0.12043381231E+03  0.25500000000E-02 0. -1.
         -2   -1    0    0    0  501 -0.00000000000E+00 -0.00000000000E+00 -0.46180662094E+00  0.46181366117E+00  0.25500000000E-02 0.  1.
         31    1    1    2    0    0  0.30372662270E+00  0.13764539908E+00  0.61751361239E+02  0.62199684381E+02  0.74470750000E+01 0. -1.
        -31    1    1    2    0    0 -0.30372662270E+00 -0.13764539908E+00  0.58220644426E+02  0.58695941594E+02  0.74470750000E+01 0.  1.
<mgrwt>
<rscale>  0 0.14915436E+02</rscale>
<asrwt>0</asrwt>
<pdfrwt beam="1">  1        2 0.99964962E+00 0.14915436E+02</pdfrwt>
<pdfrwt beam="2">  1       -2 0.98090849E+00 0.14915436E+02</pdfrwt>
<totfact> 0.13942522E-13</totfact>
</mgrwt>
</event>
<event>
 4    1 -0.5010510E-019  0.1497794E+02  0.7818608E-02  0.1868742E+00
         -2   -1    0    0    0  501 -0.00000000000E+00  0.00000000000E+00  0.11968897237E+03  0.11968897240E+03  0.25500000000E-02 0.  1.
          2   -1    0    0  501    0  0.00000000000E+00 -0.00000000000E+00 -0.46858348028E+00  0.46859041869E+00  0.25500000000E-02 0. -1.
         31    1    1    2    0    0  0.58209967085E+00 -0.53563785120E+00  0.59645816232E+02  0.60114125362E+02  0.74470750000E+01 0. -1.
        -31    1    1    2    0    0 -0.58209967085E+00  0.53563785120E+00  0.59574572655E+02  0.60043437452E+02  0.74470750000E+01 0.  1.
<mgrwt>
<rscale>  0 0.14977943E+02</rscale>
<asrwt>0</asrwt>
<pdfrwt beam="2">  1        2 0.99522299E+00 0.14977943E+02</pdfrwt>
<pdfrwt beam="1">  1       -2 0.99354680E+00 0.14977943E+02</pdfrwt>
<totfact>-0.10945369E-13</totfact>
</mgrwt>
</event>
<event>
 4    1  0.5010510E-019  0.1490134E+02  0.7818608E-02  0.1871094E+00
          2   -1    0    0  501    0  0.00000000000E+00  0.00000000000E+00  0.11975822343E+03  0.11975822345E+03  0.25500000000E-02 0.  1.
         -2   -1    0    0    0  501 -0.00000000000E+00 -0.00000000000E+00 -0.46353467857E+00  0.46354169255E+00  0.25500000000E-02 0. -1.
         31    1    1    2    0    0 -0.92216220082E-01 -0.11743198681E-01  0.61357748160E+02  0.61808096776E+02  0.74470750000E+01 0.  1.
        -31    1    1    2    0    0  0.92216220082E-01  0.11743198681E-01  0.57936940588E+02  0.58413668370E+02  0.74470750000E+01 0. -1.
<mgrwt>
<rscale>  0 0.14901344E+02</rscale>
<asrwt>0</asrwt>
<pdfrwt beam="1">  1        2 0.99407767E+00 0.14901344E+02</pdfrwt>
<pdfrwt beam="2">  1       -2 0.98454358E+00 0.14901344E+02</pdfrwt>
<totfact> 0.59763565E-13</totfact>
</mgrwt>
</event>
<event>
 4    1 -0.5010510E-019  0.1498789E+02  0.7818608E-02  0.1868438E+00
         -2   -1    0    0    0  501 -0.00000000000E+00  0.00000000000E+00  0.11984004808E+03  0.11984004810E+03  0.25500000000E-02 0.  1.
          2   -1    0    0  501    0  0.00000000000E+00 -0.00000000000E+00 -0.46861425805E+00  0.46862119601E+00  0.25500000000E-02 0. -1.
         31    1    1    2    0    0 -0.82078260067E+00 -0.13384391725E+00  0.58939162824E+02  0.59413596413E+02  0.74470750000E+01 0.  1.
        -31    1    1    2    0    0  0.82078260067E+00  0.13384391725E+00  0.60432270994E+02  0.60895072886E+02  0.74470750000E+01 0.  1.
<mgrwt>
<rscale>  0 0.14987885E+02</rscale>
<asrwt>0</asrwt>
<pdfrwt beam="2">  1        2 0.99529299E+00 0.14987885E+02</pdfrwt>
<pdfrwt beam="1">  1       -2 0.99479625E+00 0.14987885E+02</pdfrwt>
<totfact>-0.11585047E-13</totfact>
</mgrwt>
</event>
<event>
 4    1  0.5010510E-019  0.1494098E+02  0.7818608E-02  0.1869875E+00
         -2   -1    0    0    0  501 -0.00000000000E+00  0.00000000000E+00  0.11895420194E+03  0.11895420197E+03  0.25500000000E-02 0. -1.
          2   -1    0    0  501    0  0.00000000000E+00 -0.00000000000E+00 -0.46915376942E+00  0.46916069940E+00  0.25500000000E-02 0.  1.
         31    1    1    2    0    0  0.38806276171E+00  0.95796183022E-01  0.62722301362E+02  0.63164117850E+02  0.74470750000E+01 0. -1.
        -31    1    1    2    0    0 -0.38806276171E+00 -0.95796183022E-01  0.55762746812E+02  0.56259244819E+02  0.74470750000E+01 0.  1.
<mgrwt>
<rscale>  0 0.14940981E+02</rscale>
<asrwt>0</asrwt>
<pdfrwt beam="2">  1        2 0.99640545E+00 0.14940981E+02</pdfrwt>
<pdfrwt beam="1">  1       -2 0.98747592E+00 0.14940981E+02</pdfrwt>
<totfact> 0.16497453E-13</totfact>
</mgrwt>
</event>
<event>
 4    1  0.5010510E-019  0.1493003E+02  0.7818608E-02  0.1870211E+00
         -2   -1    0    0    0  501 -0.00000000000E+00  0.00000000000E+00  0.11873149131E+03  0.11873149134E+03  0.25500000000E-02 0.  1.
          2   -1    0    0  501    0  0.00000000000E+00 -0.00000000000E+00 -0.46934507143E+00  0.46935199858E+00  0.25500000000E-02 0. -1.
         31    1    1    2    0    0  0.47434979305E+00  0.95256434602E-01  0.57670919790E+02  0.58151766930E+02  0.74470750000E+01 0. -1.
        -31    1    1    2    0    0 -0.47434979305E+00 -0.95256434602E-01  0.60591226448E+02  0.61049076406E+02  0.74470750000E+01 0.  1.
<mgrwt>
<rscale>  0 0.14930031E+02</rscale>
<asrwt>0</asrwt>
<pdfrwt beam="2">  1        2 0.99680279E+00 0.14930031E+02</pdfrwt>
<pdfrwt beam="1">  1       -2 0.98563597E+00 0.14930031E+02</pdfrwt>
<totfact> 0.30903463E-13</totfact>
</mgrwt>
</event>
<event>
 4    1  0.5010510E-019  0.1491007E+02  0.7818608E-02  0.1870825E+00
          2   -1    0    0  501    0  0.00000000000E+00  0.00000000000E+00  0.11985741866E+03  0.11985741869E+03  0.25500000000E-02 0. -1.
         -2   -1    0    0    0  501 -0.00000000000E+00 -0.00000000000E+00 -0.46369383862E+00  0.46370085020E+00  0.25500000000E-02 0.  1.
         31    1    1    2    0    0  0.34414995768E+00  0.39143223233E-02  0.59585795293E+02  0.60050348719E+02  0.74470750000E+01 0.  1.
        -31    1    1    2    0    0 -0.34414995768E+00 -0.39143223233E-02  0.59807929532E+02  0.60270770822E+02  0.74470750000E+01 0. -1.
<mgrwt>
<rscale>  0 0.14910073E+02</rscale>
<asrwt>0</asrwt>
<pdfrwt beam="1">  1        2 0.99489920E+00 0.14910073E+02</pdfrwt>
<pdfrwt beam="2">  1       -2 0.98488347E+00 0.14910073E+02</pdfrwt>
<totfact> 0.50606177E-13</totfact>
</mgrwt>
</event>
<event>
 4    1 -0.5010510E-019  0.1491343E+02  0.7818608E-02  0.1870722E+00
          2   -1    0    0  501    0  0.00000000000E+00  0.00000000000E+00  0.11872942778E+03  0.11872942781E+03  0.25500000000E-02 0. -1.
         -2   -1    0    0    0  501 -0.00000000000E+00 -0.00000000000E+00 -0.46831024273E+00  0.46831718519E+00  0.25500000000E-02 0.  1.
         31    1    1    2    0    0 -0.25955891305E+00  0.92636130296E-01  0.57050256397E+02  0.57534916645E+02  0.74470750000E+01 0. -1.
        -31    1    1    2    0    0  0.25955891305E+00 -0.92636130296E-01  0.61210861140E+02  0.61662828348E+02  0.74470750000E+01 0. -1.
<mgrwt>
<rscale>  0 0.14913433E+02</rscale>
<asrwt>0</asrwt>
<pdfrwt beam="1">  1        2 0.98561035E+00 0.14913433E+02</pdfrwt>
<pdfrwt beam="2">  1       -2 0.99461360E+00 0.14913433E+02</pdfrwt>
<totfact>-0.31549963E-13</totfact>
</mgrwt>
</event>
<event>
 4    1 -0.5010510E-019  0.1494142E+02  0.7818608E-02  0.1869861E+00
         -2   -1    0    0    0  501 -0.00000000000E+00  0.00000000000E+00  0.12006156011E+03  0.12006156014E+03  0.25500000000E-02 0.  1.
          2   -1    0    0  501    0  0.00000000000E+00 -0.00000000000E+00 -0.46485374822E+00  0.46486074230E+00  0.25500000000E-02 0. -1.
         31    1    1    2    0    0 -0.42738989756E+00 -0.29672297511E+00  0.57490450794E+02  0.57973110709E+02  0.74470750000E+01 0.  1.
        -31    1    1    2    0    0  0.42738989756E+00  0.29672297511E+00  0.62106255568E+02  0.62553310171E+02  0.74470750000E+01 0.  1.
<mgrwt>
<rscale>  0 0.14941418E+02</rscale>
<asrwt>0</asrwt>
<pdfrwt beam="2">  1        2 0.98734404E+00 0.14941418E+02</pdfrwt>
<pdfrwt beam="1">  1       -2 0.99659678E+00 0.14941418E+02</pdfrwt>
<totfact>-0.21065976E-13</totfact>
</mgrwt>
</event>
<event>
 4    1 -0.5010510E-019  0.1499425E+02  0.7818608E-02  0.1868244E+00
          2   -1    0    0  501    0  0.00000000000E+00  0.00000000000E+00  0.11990135435E+03  0.11990135438E+03  0.25500000000E-02 0. -1.
         -2   -1    0    0    0  501 -0.00000000000E+00 -0.00000000000E+00 -0.46877234259E+00  0.46877927821E+00  0.25500000000E-02 0.  1.
         31    1    1    2    0    0 -0.16293399413E+00  0.38063131844E+00  0.53620988243E+02  0.54137239806E+02  0.74470750000E+01 0. -1.
        -31    1    1    2    0    0  0.16293399413E+00 -0.38063131844E+00  0.65811593769E+02  0.66232893853E+02  0.74470750000E+01 0. -1.
<mgrwt>
<rscale>  0 0.14994247E+02</rscale>
<asrwt>0</asrwt>
<pdfrwt beam="1">  1        2 0.99530448E+00 0.14994247E+02</pdfrwt>
<pdfrwt beam="2">  1       -2 0.99562942E+00 0.14994247E+02</pdfrwt>
<totfact>-0.11201252E-13</totfact>
</mgrwt>
</event>
<event>
 4    1 -0.5010510E-019  0.1491375E+02  0.7818608E-02  0.1870712E+00
          2   -1    0    0  501    0  0.00000000000E+00  0.00000000000E+00  0.11894087361E+03  0.11894087364E+03  0.25500000000E-02 0. -1.
         -2   -1    0    0    0  501 -0.00000000000E+00 -0.00000000000E+00 -0.46749752199E+00  0.46750447652E+00  0.25500000000E-02 0.  1.
         31    1    1    2    0    0 -0.28137643955E+00  0.13965077985E+00  0.57493906886E+02  0.57975054378E+02  0.74470750000E+01 0.  1.
        -31    1    1    2    0    0  0.28137643955E+00 -0.13965077985E+00  0.60979469204E+02  0.61433323738E+02  0.74470750000E+01 0. -1.
<mgrwt>
<rscale>  0 0.14913749E+02</rscale>
<asrwt>0</asrwt>
<pdfrwt beam="1">  1        2 0.98735202E+00 0.14913749E+02</pdfrwt>
<pdfrwt beam="2">  1       -2 0.99290123E+00 0.14913749E+02</pdfrwt>
<totfact>-0.20722992E-13</totfact>
</mgrwt>
</event>
<event>
 4    1 -0.5010510E-019  0.1492973E+02  0.7818608E-02  0.1870221E+00
          2   -1    0    0  501    0  0.00000000000E+00  0.00000000000E+00  0.11940462394E+03  0.11940462396E+03  0.25500000000E-02 0. -1.
         -2   -1    0    0    0  501 -0.00000000000E+00 -0.00000000000E+00 -0.46668012579E+00  0.46668709250E+00  0.25500000000E-02 0.  1.
         31    1    1    2    0    0  0.17154509137E+00  0.35790841126E+00  0.56833638540E+02  0.57320841951E+02  0.74470750000E+01 0.  1.
        -31    1    1    2    0    0 -0.17154509137E+00 -0.35790841126E+00  0.62104305272E+02  0.62550469107E+02  0.74470750000E+01 0. -1.
<mgrwt>
<rscale>  0 0.14929727E+02</rscale>
<asrwt>0</asrwt>
<pdfrwt beam="1">  1        2 0.99117987E+00 0.14929727E+02</pdfrwt>
<pdfrwt beam="2">  1       -2 0.99118705E+00 0.14929727E+02</pdfrwt>
<totfact>-0.67107452E-14</totfact>
</mgrwt>
</event>
<event>
 4    1 -0.5010510E-019  0.1490301E+02  0.7818608E-02  0.1871043E+00
         -2   -1    0    0    0  501 -0.00000000000E+00  0.00000000000E+00  0.12034614152E+03  0.12034614155E+03  0.25500000000E-02 0. -1.
          2   -1    0    0  501    0  0.00000000000E+00 -0.00000000000E+00 -0.46137302170E+00  0.46138006854E+00  0.25500000000E-02 0.  1.
         31    1    1    2    0    0  0.19527160567E+00 -0.50813213958E-01  0.58654249652E+02  0.59125465252E+02  0.74470750000E+01 0. -1.
        -31    1    1    2    0    0 -0.19527160567E+00  0.50813213958E-01  0.61230518848E+02  0.61682056365E+02  0.74470750000E+01 0.  1.
<mgrwt>
<rscale>  0 0.14903005E+02</rscale>
<asrwt>0</asrwt>
<pdfrwt beam="2">  1        2 0.97998830E+00 0.14903005E+02</pdfrwt>
<pdfrwt beam="1">  1       -2 0.99892111E+00 0.14903005E+02</pdfrwt>
<totfact>-0.27939888E-13</totfact>
</mgrwt>
</event>
<event>
 4    1 -0.5010510E-019  0.1498041E+02  0.7818608E-02  0.1868667E+00
          2   -1    0    0  501    0  0.00000000000E+00  0.00000000000E+00  0.12011701416E+03  0.12011701418E+03  0.25500000000E-02 0.  1.
         -2   -1    0    0    0  501 -0.00000000000E+00 -0.00000000000E+00 -0.46706726555E+00  0.46707422648E+00  0.25500000000E-02 0. -1.
         31    1    1    2    0    0 -0.55097516624E+00  0.23277035928E+00  0.64133235747E+02  0.64566931235E+02  0.74470750000E+01 0.  1.
        -31    1    1    2    0    0  0.55097516624E+00 -0.23277035928E+00  0.55516711144E+02  0.56017157175E+02  0.74470750000E+01 0. -1.
<mgrwt>
<rscale>  0 0.14980407E+02</rscale>
<asrwt>0</asrwt>
<pdfrwt beam="1">  1        2 0.99707361E+00 0.14980407E+02</pdfrwt>
<pdfrwt beam="2">  1       -2 0.99202901E+00 0.14980407E+02</pdfrwt>
<totfact>-0.57814722E-14</totfact>
</mgrwt>
</event>
<event>
 4    1  0.5010510E-019  0.1491857E+02  0.7818608E-02  0.1870563E+00
          2   -1    0    0  501    0  0.00000000000E+00  0.00000000000E+00  0.11981170168E+03  0.11981170171E+03  0.25500000000E-02 0. -1.
         -2   -1    0    0    0  501 -0.00000000000E+00 -0.00000000000E+00 -0.46439987075E+00  0.46440687167E+00  0.25500000000E-02 0.  1.
         31    1    1    2    0    0 -0.35556583534E+00  0.10479840725E+00  0.57970535353E+02  0.58448090687E+02  0.74470750000E+01 0.  1.
        -31    1    1    2    0    0  0.35556583534E+00 -0.10479840725E+00  0.61376766459E+02  0.61828017895E+02  0.74470750000E+01 0. -1.
<mgrwt>
<rscale>  0 0.14918574E+02</rscale>
<asrwt>0</asrwt>
<pdfrwt beam="1">  1        2 0.99452702E+00 0.14918574E+02</pdfrwt>
<pdfrwt beam="2">  1       -2 0.98637581E+00 0.14918574E+02</pdfrwt>
<totfact> 0.32761426E-13</totfact>
</mgrwt>
</event>
<event>
 4    1  0.5010510E-019  0.1493800E+02  0.7818608E-02  0.1869966E+00
         -2   -1    0    0    0  501 -0.00000000000E+00  0.00000000000E+00  0.11872270852E+03  0.11872270855E+03  0.25500000000E-02 0.  1.
          2   -1    0    0  501    0  0.00000000000E+00 -0.00000000000E+00 -0.46988084145E+00  0.46988776071E+00  0.25500000000E-02 0. -1.
         31    1    1    2    0    0  0.22558016673E+00  0.51887756248E+00  0.58463914131E+02  0.58939021895E+02  0.74470750000E+01 0. -1.
        -31    1    1    2    0    0 -0.22558016673E+00 -0.51887756248E+00  0.59788913550E+02  0.60253574416E+02  0.74470750000E+01 0.  1.
<mgrwt>
<rscale>  0 0.14937997E+02</rscale>
<asrwt>0</asrwt>
<pdfrwt beam="2">  1        2 0.99793587E+00 0.14937997E+02</pdfrwt>
<pdfrwt beam="1">  1       -2 0.98556778E+00 0.14937997E+02</pdfrwt>
<totfact> 0.23069982E-13</totfact>
</mgrwt>
</event>
<event>
 4    1 -0.5010510E-019  0.1496496E+02  0.7818608E-02  0.1869140E+00
          2   -1    0    0  501    0  0.00000000000E+00  0.00000000000E+00  0.11942751657E+03  0.11942751660E+03  0.25500000000E-02 0. -1.
         -2   -1    0    0    0  501 -0.00000000000E+00 -0.00000000000E+00 -0.46879574268E+00  0.46880267795E+00  0.25500000000E-02 0.  1.
         31    1    1    2    0    0 -0.22376935233E+00 -0.60907614689E+00  0.56851829112E+02  0.57341175833E+02  0.74470750000E+01 0. -1.
        -31    1    1    2    0    0  0.22376935233E+00  0.60907614689E+00  0.62106891716E+02  0.62555143443E+02  0.74470750000E+01 0. -1.
<mgrwt>
<rscale>  0 0.14964963E+02</rscale>
<asrwt>0</asrwt>
<pdfrwt beam="1">  1        2 0.99138665E+00 0.14964963E+02</pdfrwt>
<pdfrwt beam="2">  1       -2 0.99566354E+00 0.14964963E+02</pdfrwt>
<totfact>-0.15343335E-13</totfact>
</mgrwt>
</event>
<event>
 4    1 -0.5010510E-019  0.1496664E+02  0.7818608E-02  0.1869088E+00
         -2   -1    0    0    0  501 -0.00000000000E+00  0.00000000000E+00  0.12033553285E+03  0.12033553287E+03  0.25500000000E-02 0.  1.
          2   -1    0    0  501    0  0.00000000000E+00 -0.00000000000E+00 -0.46536249280E+00  0.46536947924E+00  0.25500000000E-02 0. -1.
         31    1    1    2    0    0 -0.13120733036E+00  0.31565649688E+00  0.54677629458E+02  0.55183502458E+02  0.74470750000E+01 0. -1.
        -31    1    1    2    0    0  0.13120733036E+00 -0.31565649688E+00  0.65192540897E+02  0.65617399896E+02  0.74470750000E+01 0.  1.
<mgrwt>
<rscale>  0 0.14966639E+02</rscale>
<asrwt>0</asrwt>
<pdfrwt beam="2">  1        2 0.98842911E+00 0.14966639E+02</pdfrwt>
<pdfrwt beam="1">  1       -2 0.99886638E+00 0.14966639E+02</pdfrwt>
<totfact>-0.77128425E-14</totfact>
</mgrwt>
</event>
<event>
 4    1  0.5010510E-019  0.1493585E+02  0.7818608E-02  0.1870032E+00
         -2   -1    0    0    0  501 -0.00000000000E+00  0.00000000000E+00  0.11862064790E+03  0.11862064793E+03  0.25500000000E-02 0. -1.
          2   -1    0    0  501    0  0.00000000000E+00 -0.00000000000E+00 -0.47014982906E+00  0.47015674436E+00  0.25500000000E-02 0.  1.
         31    1    1    2    0    0 -0.41657858457E+00 -0.30806895512E+00  0.57431076272E+02  0.57914211485E+02  0.74470750000E+01 0. -1.
        -31    1    1    2    0    0  0.41657858457E+00  0.30806895512E+00  0.60719421802E+02  0.61176593189E+02  0.74470750000E+01 0. -1.
<mgrwt>
<rscale>  0 0.14935848E+02</rscale>
<asrwt>0</asrwt>
<pdfrwt beam="2">  1        2 0.99850150E+00 0.14935848E+02</pdfrwt>
<pdfrwt beam="1">  1       -2 0.98472610E+00 0.14935848E+02</pdfrwt>
<totfact> 0.22753786E-13</totfact>
</mgrwt>
</event>
<event>
 4    1 -0.5010510E-019  0.1496799E+02  0.7818608E-02  0.1869047E+00
          2   -1    0    0  501    0  0.00000000000E+00  0.00000000000E+00  0.11917300311E+03  0.11917300313E+03  0.25500000000E-02 0.  1.
         -2   -1    0    0    0  501 -0.00000000000E+00 -0.00000000000E+00 -0.46998730690E+00  0.46999422459E+00  0.25500000000E-02 0. -1.
         31    1    1    2    0    0 -0.53988170387E+00 -0.41706371880E+00  0.57009146061E+02  0.57497539731E+02  0.74470750000E+01 0. -1.
        -31    1    1    2    0    0  0.53988170387E+00  0.41706371880E+00  0.61693869739E+02  0.62145457628E+02  0.74470750000E+01 0. -1.
<mgrwt>
<rscale>  0 0.14967994E+02</rscale>
<asrwt>0</asrwt>
<pdfrwt beam="1">  1        2 0.98929201E+00 0.14967994E+02</pdfrwt>
<pdfrwt beam="2">  1       -2 0.99817596E+00 0.14967994E+02</pdfrwt>
<totfact>-0.10575804E-13</totfact>
</mgrwt>
</event>
<event>
 4    1  0.5010510E-019  0.1491961E+02  0.7818608E-02  0.1870531E+00
          2   -1    0    0  501    0  0.00000000000E+00  0.00000000000E+00  0.11996734984E+03  0.11996734987E+03  0.25500000000E-02 0.  1.
         -2   -1    0    0    0  501 -0.00000000000E+00 -0.00000000000E+00 -0.46386198131E+00  0.46386899034E+00  0.25500000000E-02 0. -1.
         31    1    1    2    0    0 -0.40209666435E+00  0.14282360399E+00  0.59042972543E+02  0.59512297999E+02  0.74470750000E+01 0.  1.
        -31    1    1    2    0    0  0.40209666435E+00 -0.14282360399E+00  0.60460515318E+02  0.60918920861E+02  0.74470750000E+01 0.  1.
<mgrwt>
<rscale>  0 0.14919613E+02</rscale>
<asrwt>0</asrwt>
<pdfrwt beam="1">  1        2 0.99580958E+00 0.14919613E+02</pdfrwt>
<pdfrwt beam="2">  1       -2 0.98524270E+00 0.14919613E+02</pdfrwt>
<totfact> 0.41085037E-13</totfact>
</mgrwt>
</event>
<event>
 4    1  0.5010510E-019  0.1492922E+02  0.7818608E-02  0.1870236E+00
          2   -1    0    0  501    0  0.00000000000E+00  0.00000000000E+00  0.11973262440E+03  0.11973262443E+03  0.25500000000E-02 0.  1.
         -2   -1    0    0    0  501 -0.00000000000E+00 -0.00000000000E+00 -0.46537002105E+00  0.46537700738E+00  0.25500000000E-02 0. -1.
         31    1    1    2    0    0 -0.32388008310E+00  0.38824252185E+00  0.60248836235E+02  0.60709445923E+02  0.74470750000E+01 0. -1.
        -31    1    1    2    0    0  0.32388008310E+00 -0.38824252185E+00  0.59018418143E+02  0.59488555510E+02  0.74470750000E+01 0.  1.
<mgrwt>
<rscale>  0 0.14929219E+02</rscale>
<asrwt>0</asrwt>
<pdfrwt beam="1">  1        2 0.99388117E+00 0.14929219E+02</pdfrwt>
<pdfrwt beam="2">  1       -2 0.98842586E+00 0.14929219E+02</pdfrwt>
<totfact> 0.12806862E-13</totfact>
</mgrwt>
</event>
<event>
 4    1 -0.5010510E-019  0.1490553E+02  0.7818608E-02  0.1870965E+00
          2   -1    0    0  501    0  0.00000000000E+00  0.00000000000E+00  0.11874744925E+03  0.11874744927E+03  0.25500000000E-02 0.  1.
         -2   -1    0    0    0  501 -0.00000000000E+00 -0.00000000000E+00 -0.46774303733E+00  0.46774998822E+00  0.25500000000E-02 0. -1.
         31    1    1    2    0    0  0.27832966887E+00 -0.41328780785E-02  0.58456592764E+02  0.58929700900E+02  0.74470750000E+01 0. -1.
        -31    1    1    2    0    0 -0.27832966887E+00  0.41328780785E-02  0.59823113445E+02  0.60285498362E+02  0.74470750000E+01 0. -1.
<mgrwt>
<rscale>  0 0.14905530E+02</rscale>
<asrwt>0</asrwt>
<pdfrwt beam="1">  1        2 0.98575468E+00 0.14905530E+02</pdfrwt>
<pdfrwt beam="2">  1       -2 0.99341429E+00 0.14905530E+02</pdfrwt>
<totfact>-0.28483267E-13</totfact>
</mgrwt>
</event>
<event>
 4    1  0.5010510E-019  0.1490606E+02  0.7818608E-02  0.1870949E+00
         -2   -1    0    0    0  501 -0.00000000000E+00  0.00000000000E+00  0.11826188108E+03  0.11826188110E+03  0.25500000000E-02 0. -1.
          2   -1    0    0  501    0  0.00000000000E+00 -0.00000000000E+00 -0.46969721078E+00  0.46970413274E+00  0.25500000000E-02 0.  1.
         31    1    1    2    0    0 -0.10278315508E-01 -0.28314774584E+00  0.58162421579E+02  0.58637927047E+02  0.74470750000E+01 0. -1.
        -31    1    1    2    0    0  0.10278315508E-01  0.28314774584E+00  0.59629762286E+02  0.60093658190E+02  0.74470750000E+01 0.  1.
<mgrwt>
<rscale>  0 0.14906064E+02</rscale>
<asrwt>0</asrwt>
<pdfrwt beam="2">  1        2 0.99753210E+00 0.14906064E+02</pdfrwt>
<pdfrwt beam="1">  1       -2 0.98175582E+00 0.14906064E+02</pdfrwt>
<totfact> 0.66279182E-13</totfact>
</mgrwt>
</event>
<event>
 4    1  0.5010510E-019  0.1489436E+02  0.7818608E-02  0.1871309E+00
         -2   -1    0    0    0  501 -0.00000000000E+00  0.00000000000E+00  0.11842239725E+03  0.11842239728E+03  0.25500000000E-02 0.  1.
          2   -1    0    0  501    0  0.00000000000E+00 -0.00000000000E+00 -0.46832449000E+00  0.46833143225E+00  0.25500000000E-02 0. -1.
         31    1    1    2    0    0  0.23798115335E-01 -0.23391068971E-01  0.59152567206E+02  0.59619512298E+02  0.74470750000E+01 0. -1.
        -31    1    1    2    0    0 -0.23798115335E-01  0.23391068971E-01  0.58801505553E+02  0.59271216412E+02  0.74470750000E+01 0. -1.
<mgrwt>
<rscale>  0 0.14894364E+02</rscale>
<asrwt>0</asrwt>
<pdfrwt beam="2">  1        2 0.99463361E+00 0.14894364E+02</pdfrwt>
<pdfrwt beam="1">  1       -2 0.98307173E+00 0.14894364E+02</pdfrwt>
<totfact> 0.81249194E-13</totfact>
</mgrwt>
</event>
<event>
 4    1  0.5010510E-019  0.1490256E+02  0.7818608E-02  0.1871057E+00
         -2   -1    0    0    0  501 -0.00000000000E+00  0.00000000000E+00  0.11810181130E+03  0.11810181133E+03  0.25500000000E-02 0.  1.
          2   -1    0    0  501    0  0.00000000000E+00 -0.00000000000E+00 -0.47011275442E+00  0.47011967027E+00  0.25500000000E-02 0. -1.
         31    1    1    2    0    0  0.75585885307E-01 -0.10256629050E+00  0.57101595492E+02  0.57585305130E+02  0.74470750000E+01 0. -1.
        -31    1    1    2    0    0 -0.75585885307E-01  0.10256629050E+00  0.60530103056E+02  0.60986625871E+02  0.74470750000E+01 0.  1.
<mgrwt>
<rscale>  0 0.14902561E+02</rscale>
<asrwt>0</asrwt>
<pdfrwt beam="2">  1        2 0.99840576E+00 0.14902561E+02</pdfrwt>
<pdfrwt beam="1">  1       -2 0.98043569E+00 0.14902561E+02</pdfrwt>
<totfact> 0.60115346E-13</totfact>
</mgrwt>
</event>
<event>
 4    1 -0.5010510E-019  0.1492730E+02  0.7818608E-02  0.1870295E+00
          2   -1    0    0  501    0  0.00000000000E+00  0.00000000000E+00  0.11859556273E+03  0.11859556276E+03  0.25500000000E-02 0. -1.
         -2   -1    0    0    0  501 -0.00000000000E+00 -0.00000000000E+00 -0.46971118732E+00  0.46971810908E+00  0.25500000000E-02 0.  1.
         31    1    1    2    0    0 -0.76856269786E-01 -0.32700590829E+00  0.56139723885E+02  0.56632502715E+02  0.74470750000E+01 0.  1.
        -31    1    1    2    0    0  0.76856269786E-01  0.32700590829E+00  0.61986127661E+02  0.62432778156E+02  0.74470750000E+01 0. -1.
<mgrwt>
<rscale>  0 0.14927301E+02</rscale>
<asrwt>0</asrwt>
<pdfrwt beam="1">  1        2 0.98451505E+00 0.14927301E+02</pdfrwt>
<pdfrwt beam="2">  1       -2 0.99757277E+00 0.14927301E+02</pdfrwt>
<totfact>-0.25950483E-13</totfact>
</mgrwt>
</event>
<event>
 4    1 -0.5010510E-019  0.1493358E+02  0.7818608E-02  0.1870102E+00
          2   -1    0    0  501    0  0.00000000000E+00  0.00000000000E+00  0.11920472740E+03  0.11920472743E+03  0.25500000000E-02 0. -1.
         -2   -1    0    0    0  501 -0.00000000000E+00 -0.00000000000E+00 -0.46770418212E+00  0.46771113358E+00  0.25500000000E-02 0.  1.
         31    1    1    2    0    0  0.38545325316E+00 -0.37943267231E+00  0.59058382823E+02  0.59528514605E+02  0.74470750000E+01 0.  1.
        -31    1    1    2    0    0 -0.38545325316E+00  0.37943267231E+00  0.59678640397E+02  0.60143923958E+02  0.74470750000E+01 0. -1.
<mgrwt>
<rscale>  0 0.14933582E+02</rscale>
<asrwt>0</asrwt>
<pdfrwt beam="1">  1        2 0.98953545E+00 0.14933582E+02</pdfrwt>
<pdfrwt beam="2">  1       -2 0.99334704E+00 0.14933582E+02</pdfrwt>
<totfact>-0.17143392E-13</totfact>
</mgrwt>
</event>
<event>
 4    1 -0.5010510E-019  0.1502836E+02  0.7818608E-02  0.1867204E+00
         -2   -1    0    0    0  501 -0.00000000000E+00  0.00000000000E+00  0.12027915770E+03  0.12027915773E+03  0.25500000000E-02 0.  1.
          2   -1    0    0  501    0  0.00000000000E+00 -0.00000000000E+00 -0.46942891371E+00  0.46943583962E+00  0.25500000000E-02 0. -1.
         31    1    1    2    0    0 -0.40448150758E+00  0.53653490651E+00  0.53932455938E+02  0.54448326003E+02  0.74470750000E+01 0. -1.
        -31    1    1    2    0    0  0.40448150758E+00 -0.53653490651E+00  0.65877272849E+02  0.66300267564E+02  0.74470750000E+01 0.  1.
<mgrwt>
<rscale>  0 0.15028364E+02</rscale>
<asrwt>0</asrwt>
<pdfrwt beam="2">  1        2 0.99703067E+00 0.15028364E+02</pdfrwt>
<pdfrwt beam="1">  1       -2 0.99843386E+00 0.15028364E+02</pdfrwt>
<totfact>-0.42414214E-14</totfact>
</mgrwt>
</event>
<event>
 4    1 -0.5010510E-019  0.1491148E+02  0.7818608E-02  0.1870782E+00
          2   -1    0    0  501    0  0.00000000000E+00  0.00000000000E+00  0.11839133561E+03  0.11839133563E+03  0.25500000000E-02 0. -1.
         -2   -1    0    0    0  501 -0.00000000000E+00 -0.00000000000E+00 -0.46952466505E+00  0.46953158955E+00  0.25500000000E-02 0.  1.
         31    1    1    2    0    0 -0.30036556419E+00 -0.19224068313E+00  0.58607708857E+02  0.59080027416E+02  0.74470750000E+01 0.  1.
        -31    1    1    2    0    0  0.30036556419E+00  0.19224068313E+00  0.59314102085E+02  0.59780839808E+02  0.74470750000E+01 0.  1.
<mgrwt>
<rscale>  0 0.14911481E+02</rscale>
<asrwt>0</asrwt>
<pdfrwt beam="1">  1        2 0.98282481E+00 0.14911481E+02</pdfrwt>
<pdfrwt beam="2">  1       -2 0.99717142E+00 0.14911481E+02</pdfrwt>
<totfact>-0.38418926E-13</totfact>
</mgrwt>
</event>
<event>
 4    1 -0.5010510E-019  0.1490694E+02  0.7818608E-02  0.1870922E+00
          2   -1    0    0  501    0  0.00000000000E+00  0.00000000000E+00  0.11847054133E+03  0.11847054135E+03  0.25500000000E-02 0.  1.
         -2   -1    0    0    0  501 -0.00000000000E+00 -0.00000000000E+00 -0.46892478768E+00  0.46893172105E+00  0.25500000000E-02 0. -1.
         31    1    1    2    0    0  0.24295776110E+00  0.15050975352E+00  0.58071023595E+02  0.58547283362E+02  0.74470750000E+01 0. -1.
        -31    1    1    2    0    0 -0.24295776110E+00 -0.15050975352E+00  0.59930592943E+02  0.60392189712E+02  0.74470750000E+01 0.  1.
<mgrwt>
<rscale>  0 0.14906936E+02</rscale>
<asrwt>0</asrwt>
<pdfrwt beam="1">  1        2 0.98347478E+00 0.14906936E+02</pdfrwt>
<pdfrwt beam="2">  1       -2 0.99590508E+00 0.14906936E+02</pdfrwt>
<totfact>-0.42356478E-13</totfact>
</mgrwt>
</event>
<event>
 4    1  0.5010510E-019  0.1494464E+02  0.7818608E-02  0.1869762E+00
         -2   -1    0    0    0  501 -0.00000000000E+00  0.00000000000E+00  0.11890181934E+03  0.11890181936E+03  0.25500000000E-02 0.  1.
          2   -1    0    0  501    0  0.00000000000E+00 -0.00000000000E+00 -0.46959051351E+00  0.46959743704E+00  0.25500000000E-02 0. -1.
         31    1    1    2    0    0 -0.49562129530E+00  0.35047998665E+00  0.58493756786E+02  0.58969034125E+02  0.74470750000E+01 0.  1.
        -31    1    1    2    0    0  0.49562129530E+00 -0.35047998665E+00  0.59938472038E+02  0.60402382676E+02  0.74470750000E+01 0. -1.
<mgrwt>
<rscale>  0 0.14944642E+02</rscale>
<asrwt>0</asrwt>
<pdfrwt beam="2">  1        2 0.99732763E+00 0.14944642E+02</pdfrwt>
<pdfrwt beam="1">  1       -2 0.98704639E+00 0.14944642E+02</pdfrwt>
<totfact> 0.16426872E-13</totfact>
</mgrwt>
</event>
<event>
 4    1 -0.5010510E-019  0.1495049E+02  0.7818608E-02  0.1869583E+00
          2   -1    0    0  501    0  0.00000000000E+00  0.00000000000E+00  0.11934869987E+03  0.11934869989E+03  0.25500000000E-02 0.  1.
         -2   -1    0    0    0  501 -0.00000000000E+00 -0.00000000000E+00 -0.46819845487E+00  0.46820539899E+00  0.25500000000E-02 0. -1.
         31    1    1    2    0    0 -0.50481747142E-02  0.23105888609E+00  0.54585477908E+02  0.55091621306E+02  0.74470750000E+01 0.  1.
        -31    1    1    2    0    0  0.50481747142E-02 -0.23105888609E+00  0.64295023504E+02  0.64725283987E+02  0.74470750000E+01 0.  1.
<mgrwt>
<rscale>  0 0.14950491E+02</rscale>
<asrwt>0</asrwt>
<pdfrwt beam="1">  1        2 0.99073000E+00 0.14950491E+02</pdfrwt>
<pdfrwt beam="2">  1       -2 0.99439738E+00 0.14950491E+02</pdfrwt>
<totfact>-0.16676121E-13</totfact>
</mgrwt>
</event>
<event>
 4    1 -0.5010510E-019  0.1491640E+02  0.7818608E-02  0.1870630E+00
         -2   -1    0    0    0  501 -0.00000000000E+00  0.00000000000E+00  0.12014170020E+03  0.12014170023E+03  0.25500000000E-02 0.  1.
          2   -1    0    0  501    0  0.00000000000E+00 -0.00000000000E+00 -0.46298915600E+00  0.46299617825E+00  0.25500000000E-02 0. -1.
         31    1    1    2    0    0  0.38152754489E+00 -0.61625398982E-01  0.58802582785E+02  0.59273535656E+02  0.74470750000E+01 0. -1.
        -31    1    1    2    0    0 -0.38152754489E+00  0.61625398982E-01  0.60876128258E+02  0.61331160748E+02  0.74470750000E+01 0.  1.
<mgrwt>
<rscale>  0 0.14916398E+02</rscale>
<asrwt>0</asrwt>
<pdfrwt beam="2">  1        2 0.98340146E+00 0.14916398E+02</pdfrwt>
<pdfrwt beam="1">  1       -2 0.99724401E+00 0.14916398E+02</pdfrwt>
<totfact>-0.34238915E-13</totfact>
</mgrwt>
</event>
<event>
 4    1 -0.5010510E-019  0.1492356E+02  0.7818608E-02  0.1870410E+00
         -2   -1    0    0    0  501 -0.00000000000E+00  0.00000000000E+00  0.11948077145E+03  0.11948077148E+03  0.25500000000E-02 0.  1.
          2   -1    0    0  501    0  0.00000000000E+00 -0.00000000000E+00 -0.46599739708E+00  0.46600437400E+00  0.25500000000E-02 0. -1.
         31    1    1    2    0    0  0.24818436532E+00  0.36672322101E-01  0.56329994295E+02  0.56820683943E+02  0.74470750000E+01 0. -1.
        -31    1    1    2    0    0 -0.24818436532E+00 -0.36672322101E-01  0.62684779756E+02  0.63126091907E+02  0.74470750000E+01 0.  1.
<mgrwt>
<rscale>  0 0.14923558E+02</rscale>
<asrwt>0</asrwt>
<pdfrwt beam="2">  1        2 0.98974511E+00 0.14923558E+02</pdfrwt>
<pdfrwt beam="1">  1       -2 0.99180387E+00 0.14923558E+02</pdfrwt>
<totfact>-0.11134103E-13</totfact>
</mgrwt>
</event>
<event>
 4    1  0.5010510E-019  0.1490588E+02  0.7818608E-02  0.1870954E+00
          2   -1    0    0  501    0  0.00000000000E+00  0.00000000000E+00  0.12006477605E+03  0.12006477608E+03  0.25500000000E-02 0.  1.
         -2   -1    0    0    0  501 -0.00000000000E+00 -0.00000000000E+00 -0.46263288713E+00  0.46263991479E+00  0.25500000000E-02 0. -1.
         31    1    1    2    0    0  0.40663443838E-02 -0.83452694207E-01  0.62094277626E+02  0.62539309405E+02  0.74470750000E+01 0.  1.
        -31    1    1    2    0    0 -0.40663443838E-02  0.83452694207E-01  0.57507865541E+02  0.57988106591E+02  0.74470750000E+01 0. -1.
<mgrwt>
<rscale>  0 0.14905883E+02</rscale>
<asrwt>0</asrwt>
<pdfrwt beam="1">  1        2 0.99660500E+00 0.14905883E+02</pdfrwt>
<pdfrwt beam="2">  1       -2 0.98264524E+00 0.14905883E+02</pdfrwt>
<totfact> 0.68826123E-13</totfact>
</mgrwt>
</event>
<event>
 4    1 -0.5010510E-019  0.1493192E+02  0.7818608E-02  0.1870153E+00
          2   -1    0    0  501    0  0.00000000000E+00  0.00000000000E+00  0.11912572536E+03  0.11912572538E+03  0.25500000000E-02 0.  1.
         -2   -1    0    0    0  501 -0.00000000000E+00 -0.00000000000E+00 -0.46790990245E+00  0.46791685085E+00  0.25500000000E-02 0. -1.
         31    1    1    2    0    0 -0.15413749442E+00  0.43003130218E+00  0.61491591418E+02  0.61942581690E+02  0.74470750000E+01 0.  1.
        -31    1    1    2    0    0  0.15413749442E+00 -0.43003130218E+00  0.57166224035E+02  0.57651060543E+02  0.74470750000E+01 0.  1.
<mgrwt>
<rscale>  0 0.14931915E+02</rscale>
<asrwt>0</asrwt>
<pdfrwt beam="1">  1        2 0.98888391E+00 0.14931915E+02</pdfrwt>
<pdfrwt beam="2">  1       -2 0.99377967E+00 0.14931915E+02</pdfrwt>
<totfact>-0.19303335E-13</totfact>
</mgrwt>
</event>
<event>
 4    1 -0.5010510E-019  0.1495047E+02  0.7818608E-02  0.1869584E+00
         -2   -1    0    0    0  501 -0.00000000000E+00  0.00000000000E+00  0.11992381355E+03  0.11992381357E+03  0.25500000000E-02 0.  1.
          2   -1    0    0  501    0  0.00000000000E+00 -0.00000000000E+00 -0.46595208579E+00  0.46595906339E+00  0.25500000000E-02 0. -1.
         31    1    1    2    0    0 -0.20379270333E+00 -0.52526569523E+00  0.62310921529E+02  0.62756890485E+02  0.74470750000E+01 0.  1.
        -31    1    1    2    0    0  0.20379270333E+00  0.52526569523E+00  0.57146939933E+02  0.57632882153E+02  0.74470750000E+01 0. -1.
<mgrwt>
<rscale>  0 0.14950475E+02</rscale>
<asrwt>0</asrwt>
<pdfrwt beam="2">  1        2 0.98966345E+00 0.14950475E+02</pdfrwt>
<pdfrwt beam="1">  1       -2 0.99546687E+00 0.14950475E+02</pdfrwt>
<totfact>-0.18107329E-13</totfact>
</mgrwt>
</event>
<event>
 4    1 -0.5010510E-019  0.1500672E+02  0.7818608E-02  0.1867864E+00
          2   -1    0    0  501    0  0.00000000000E+00  0.00000000000E+00  0.11972308036E+03  0.11972308038E+03  0.25500000000E-02 0. -1.
         -2   -1    0    0    0  501 -0.00000000000E+00 -0.00000000000E+00 -0.47025161933E+00  0.47025853313E+00  0.25500000000E-02 0.  1.
         31    1    1    2    0    0 -0.36557947911E+00  0.34948170531E-01  0.52893864166E+02  0.53416801310E+02  0.74470750000E+01 0.  1.
        -31    1    1    2    0    0  0.36557947911E+00 -0.34948170531E-01  0.66358964570E+02  0.66776537606E+02  0.74470750000E+01 0. -1.
<mgrwt>
<rscale>  0 0.15006717E+02</rscale>
<asrwt>0</asrwt>
<pdfrwt beam="1">  1        2 0.99384262E+00 0.15006717E+02</pdfrwt>
<pdfrwt beam="2">  1       -2 0.99875314E+00 0.15006717E+02</pdfrwt>
<totfact>-0.52537702E-14</totfact>
</mgrwt>
</event>
<event>
 4    1  0.5010510E-019  0.1490004E+02  0.7818608E-02  0.1871134E+00
          2   -1    0    0  501    0  0.00000000000E+00  0.00000000000E+00  0.12027723625E+03  0.12027723628E+03  0.25500000000E-02 0.  1.
         -2   -1    0    0    0  501 -0.00000000000E+00 -0.00000000000E+00 -0.46145341866E+00  0.46146046428E+00  0.25500000000E-02 0. -1.
         31    1    1    2    0    0  0.93910436287E-01  0.15000410419E+00  0.59001110466E+02  0.59469498759E+02  0.74470750000E+01 0. -1.
        -31    1    1    2    0    0 -0.93910436287E-01 -0.15000410419E+00  0.60814672364E+02  0.61269197980E+02  0.74470750000E+01 0. -1.
<mgrwt>
<rscale>  0 0.14900036E+02</rscale>
<asrwt>0</asrwt>
<pdfrwt beam="1">  1        2 0.99835202E+00 0.14900036E+02</pdfrwt>
<pdfrwt beam="2">  1       -2 0.98015627E+00 0.14900036E+02</pdfrwt>
<totfact> 0.64819848E-13</totfact>
</mgrwt>
</event>
<event>
 4    1 -0.5010510E-019  0.1496526E+02  0.7818608E-02  0.1869130E+00
         -2   -1    0    0    0  501 -0.00000000000E+00  0.00000000000E+00  0.11979479956E+03  0.11979479959E+03  0.25500000000E-02 0. -1.
          2   -1    0    0  501    0  0.00000000000E+00 -0.00000000000E+00 -0.46737690968E+00  0.46738386601E+00  0.25500000000E-02 0.  1.
         31    1    1    2    0    0  0.39471288453E+00  0.61238631258E+00  0.59674572497E+02  0.60141868478E+02  0.74470750000E+01 0.  1.
        -31    1    1    2    0    0 -0.39471288453E+00 -0.61238631258E+00  0.59652850156E+02  0.60120314978E+02  0.74470750000E+01 0. -1.
<mgrwt>
<rscale>  0 0.14965259E+02</rscale>
<asrwt>0</asrwt>
<pdfrwt beam="2">  1        2 0.99267377E+00 0.14965259E+02</pdfrwt>
<pdfrwt beam="1">  1       -2 0.99441188E+00 0.14965259E+02</pdfrwt>
<totfact>-0.14386268E-13</totfact>
</mgrwt>
</event>
<event>
 4    1 -0.5010510E-019  0.1494757E+02  0.7818608E-02  0.1869673E+00
         -2   -1    0    0    0  501 -0.00000000000E+00  0.00000000000E+00  0.12012687999E+03  0.12012688002E+03  0.25500000000E-02 0. -1.
          2   -1    0    0  501    0  0.00000000000E+00 -0.00000000000E+00 -0.46498347994E+00  0.46499047207E+00  0.25500000000E-02 0.  1.
         31    1    1    2    0    0 -0.23177472058E+00 -0.13152061469E+00  0.64447839556E+02  0.64877222248E+02  0.74470750000E+01 0. -1.
        -31    1    1    2    0    0  0.23177472058E+00  0.13152061469E+00  0.55214056954E+02  0.55714648241E+02  0.74470750000E+01 0.  1.
<mgrwt>
<rscale>  0 0.14947567E+02</rscale>
<asrwt>0</asrwt>
<pdfrwt beam="2">  1        2 0.98762059E+00 0.14947567E+02</pdfrwt>
<pdfrwt beam="1">  1       -2 0.99713796E+00 0.14947567E+02</pdfrwt>
<totfact>-0.18211291E-13</totfact>
</mgrwt>
</event>
<event>
 4    1  0.5010510E-019  0.1491347E+02  0.7818608E-02  0.1870720E+00
         -2   -1    0    0    0  501 -0.00000000000E+00  0.00000000000E+00  0.11900069688E+03  0.11900069691E+03  0.25500000000E-02 0.  1.
          2   -1    0    0  501    0  0.00000000000E+00 -0.00000000000E+00 -0.46724524496E+00  0.46725220325E+00  0.25500000000E-02 0. -1.
         31    1    1    2    0    0  0.12813977907E+00  0.71312704025E-01  0.62070435064E+02  0.62515752738E+02  0.74470750000E+01 0.  1.
        -31    1    1    2    0    0 -0.12813977907E+00 -0.71312704025E-01  0.56463016569E+02  0.56952196371E+02  0.74470750000E+01 0. -1.
<mgrwt>
<rscale>  0 0.14913474E+02</rscale>
<asrwt>0</asrwt>
<pdfrwt beam="2">  1        2 0.99236949E+00 0.14913474E+02</pdfrwt>
<pdfrwt beam="1">  1       -2 0.98784459E+00 0.14913474E+02</pdfrwt>
<totfact> 0.20374805E-13</totfact>
</mgrwt>
</event>
<event>
 4    1  0.5010510E-019  0.1491969E+02  0.7818608E-02  0.1870529E+00
          2   -1    0    0  501    0  0.00000000000E+00  0.00000000000E+00  0.11986338674E+03  0.11986338676E+03  0.25500000000E-02 0. -1.
         -2   -1    0    0    0  501 -0.00000000000E+00 -0.00000000000E+00 -0.46426893349E+00  0.46427593638E+00  0.25500000000E-02 0.  1.
         31    1    1    2    0    0  0.26264570127E+00 -0.34699422723E+00  0.59948905542E+02  0.60411253832E+02  0.74470750000E+01 0. -1.
        -31    1    1    2    0    0 -0.26264570127E+00  0.34699422723E+00  0.59450212260E+02  0.59916408867E+02  0.74470750000E+01 0. -1.
<mgrwt>
<rscale>  0 0.14919688E+02</rscale>
<asrwt>0</asrwt>
<pdfrwt beam="1">  1        2 0.99495330E+00 0.14919688E+02</pdfrwt>
<pdfrwt beam="2">  1       -2 0.98610042E+00 0.14919688E+02</pdfrwt>
<totfact> 0.34639109E-13</totfact>
</mgrwt>
</event>
<event>
 4    1  0.5010510E-019  0.1492828E+02  0.7818608E-02  0.1870265E+00
          2   -1    0    0  501    0  0.00000000000E+00  0.00000000000E+00  0.12014094124E+03  0.12014094126E+03  0.25500000000E-02 0.  1.
         -2   -1    0    0    0  501 -0.00000000000E+00 -0.00000000000E+00 -0.46373015704E+00  0.46373716807E+00  0.25500000000E-02 0. -1.
         31    1    1    2    0    0 -0.13792975388E+00 -0.40822493808E+00  0.57719462957E+02  0.58199493145E+02  0.74470750000E+01 0. -1.
        -31    1    1    2    0    0  0.13792975388E+00  0.40822493808E+00  0.61957748124E+02  0.62405185288E+02  0.74470750000E+01 0.  1.
<mgrwt>
<rscale>  0 0.14928282E+02</rscale>
<asrwt>0</asrwt>
<pdfrwt beam="1">  1        2 0.99724386E+00 0.14928282E+02</pdfrwt>
<pdfrwt beam="2">  1       -2 0.98496927E+00 0.14928282E+02</pdfrwt>
<totfact> 0.34060725E-13</totfact>
</mgrwt>
</event>
<event>
 4    1 -0.5010510E-019  0.1497070E+02  0.7818608E-02  0.1868964E+00
          2   -1    0    0  501    0  0.00000000000E+00  0.00000000000E+00  0.11934066856E+03  0.11934066859E+03  0.25500000000E-02 0.  1.
         -2   -1    0    0    0  501 -0.00000000000E+00 -0.00000000000E+00 -0.46949693684E+00  0.46950386175E+00  0.25500000000E-02 0. -1.
         31    1    1    2    0    0 -0.14329375107E+00  0.66918702570E+00  0.56864345986E+02  0.57353998247E+02  0.74470750000E+01 0. -1.
        -31    1    1    2    0    0  0.14329375107E+00 -0.66918702570E+00  0.62006825637E+02  0.62456174203E+02  0.74470750000E+01 0.  1.
<mgrwt>
<rscale>  0 0.14970704E+02</rscale>
<asrwt>0</asrwt>
<pdfrwt beam="1">  1        2 0.99067433E+00 0.14970704E+02</pdfrwt>
<pdfrwt beam="2">  1       -2 0.99714409E+00 0.14970704E+02</pdfrwt>
<totfact>-0.13027301E-13</totfact>
</mgrwt>
</event>
<event>
 4    1 -0.5010510E-019  0.1498997E+02  0.7818608E-02  0.1868375E+00
          2   -1    0    0  501    0  0.00000000000E+00  0.00000000000E+00  0.11968988525E+03  0.11968988528E+03  0.25500000000E-02 0.  1.
         -2   -1    0    0    0  501 -0.00000000000E+00 -0.00000000000E+00 -0.46933275586E+00  0.46933968320E+00  0.25500000000E-02 0. -1.
         31    1    1    2    0    0  0.13698580568E+00  0.54844476047E+00  0.54563911593E+02  0.55072669548E+02  0.74470750000E+01 0. -1.
        -31    1    1    2    0    0 -0.13698580568E+00 -0.54844476047E+00  0.64656640905E+02  0.65086555416E+02  0.74470750000E+01 0.  1.
<mgrwt>
<rscale>  0 0.14989970E+02</rscale>
<asrwt>0</asrwt>
<pdfrwt beam="1">  1        2 0.99356054E+00 0.14989970E+02</pdfrwt>
<pdfrwt beam="2">  1       -2 0.99680816E+00 0.14989970E+02</pdfrwt>
<totfact>-0.11261046E-13</totfact>
</mgrwt>
</event>
<event>
 4    1 -0.5010510E-019  0.1490806E+02  0.7818608E-02  0.1870887E+00
         -2   -1    0    0    0  501 -0.00000000000E+00  0.00000000000E+00  0.11995831521E+03  0.11995831524E+03  0.25500000000E-02 0. -1.
          2   -1    0    0  501    0  0.00000000000E+00 -0.00000000000E+00 -0.46317864254E+00  0.46318566192E+00  0.25500000000E-02 0.  1.
         31    1    1    2    0    0  0.39087224936E-02 -0.53865663352E-01  0.62310998275E+02  0.62754460789E+02  0.74470750000E+01 0. -1.
        -31    1    1    2    0    0 -0.39087224936E-02  0.53865663352E-01  0.57184138292E+02  0.57667040110E+02  0.74470750000E+01 0.  1.
<mgrwt>
<rscale>  0 0.14908059E+02</rscale>
<asrwt>0</asrwt>
<pdfrwt beam="2">  1        2 0.98379661E+00 0.14908059E+02</pdfrwt>
<pdfrwt beam="1">  1       -2 0.99572922E+00 0.14908059E+02</pdfrwt>
<totfact>-0.40773018E-13</totfact>
</mgrwt>
</event>
<event>
 4    1 -0.5010510E-019  0.1496178E+02  0.7818608E-02  0.1869237E+00
          2   -1    0    0  501    0  0.00000000000E+00  0.00000000000E+00  0.11971375769E+03  0.11971375771E+03  0.25500000000E-02 0. -1.
         -2   -1    0    0    0  501 -0.00000000000E+00 -0.00000000000E+00 -0.46747606470E+00  0.46748301955E+00  0.25500000000E-02 0.  1.
         31    1    1    2    0    0 -0.60606382773E+00 -0.29564665483E+00  0.57825401203E+02  0.58306866410E+02  0.74470750000E+01 0.  1.
        -31    1    1    2    0    0  0.60606382773E+00  0.29564665483E+00  0.61420880419E+02  0.61874374322E+02  0.74470750000E+01 0.  1.
<mgrwt>
<rscale>  0 0.14961783E+02</rscale>
<asrwt>0</asrwt>
<pdfrwt beam="1">  1        2 0.99374258E+00 0.14961783E+02</pdfrwt>
<pdfrwt beam="2">  1       -2 0.99288094E+00 0.14961783E+02</pdfrwt>
<totfact>-0.11305241E-13</totfact>
</mgrwt>
</event>
<event>
 4    1 -0.5010510E-019  0.1496000E+02  0.7818608E-02  0.1869292E+00
         -2   -1    0    0    0  501 -0.00000000000E+00  0.00000000000E+00  0.11941675347E+03  0.11941675350E+03  0.25500000000E-02 0. -1.
          2   -1    0    0  501    0  0.00000000000E+00 -0.00000000000E+00 -0.46852719102E+00  0.46853413027E+00  0.25500000000E-02 0.  1.
         31    1    1    2    0    0  0.28590469560E+00  0.91433325802E-01  0.64551209213E+02  0.64980055697E+02  0.74470750000E+01 0. -1.
        -31    1    1    2    0    0 -0.28590469560E+00 -0.91433325802E-01  0.54397017071E+02  0.54905231935E+02  0.74470750000E+01 0.  1.
<mgrwt>
<rscale>  0 0.14960002E+02</rscale>
<asrwt>0</asrwt>
<pdfrwt beam="2">  1        2 0.99509506E+00 0.14960002E+02</pdfrwt>
<pdfrwt beam="1">  1       -2 0.99129544E+00 0.14960002E+02</pdfrwt>
<totfact>-0.53487032E-14</totfact>
</mgrwt>
</event>
<event>
 4    1 -0.5010510E-019  0.1495478E+02  0.7818608E-02  0.1869451E+00
         -2   -1    0    0    0  501 -0.00000000000E+00  0.00000000000E+00  0.11980629653E+03  0.11980629656E+03  0.25500000000E-02 0. -1.
          2   -1    0    0  501    0  0.00000000000E+00 -0.00000000000E+00 -0.46667791132E+00  0.46668487807E+00  0.25500000000E-02 0.  1.
         31    1    1    2    0    0  0.40491434122E+00  0.47860447614E+00  0.57709219131E+02  0.58191115444E+02  0.74470750000E+01 0.  1.
        -31    1    1    2    0    0 -0.40491434122E+00 -0.47860447614E+00  0.61630399491E+02  0.62081865994E+02  0.74470750000E+01 0. -1.
<mgrwt>
<rscale>  0 0.14954782E+02</rscale>
<asrwt>0</asrwt>
<pdfrwt beam="2">  1        2 0.99119531E+00 0.14954782E+02</pdfrwt>
<pdfrwt beam="1">  1       -2 0.99450116E+00 0.14954782E+02</pdfrwt>
<totfact>-0.16091715E-13</totfact>
</mgrwt>
</event>
<event>
 4    1  0.5010510E-019  0.1493668E+02  0.7818608E-02  0.1870007E+00
         -2   -1    0    0    0  501 -0.00000000000E+00  0.00000000000E+00  0.11915958480E+03  0.11915958483E+03  0.25500000000E-02 0. -1.
          2   -1    0    0  501    0  0.00000000000E+00 -0.00000000000E+00 -0.46807576445E+00  0.46808271039E+00  0.25500000000E-02 0.  1.
         31    1    1    2    0    0  0.53760482051E+00 -0.52937085232E-01  0.60621762164E+02  0.61079855888E+02  0.74470750000E+01 0.  1.
        -31    1    1    2    0    0 -0.53760482051E+00  0.52937085232E-01  0.58069746872E+02  0.58547811651E+02  0.74470750000E+01 0. -1.
<mgrwt>
<rscale>  0 0.14936684E+02</rscale>
<asrwt>0</asrwt>
<pdfrwt beam="2">  1        2 0.99413166E+00 0.14936684E+02</pdfrwt>
<pdfrwt beam="1">  1       -2 0.98916525E+00 0.14936684E+02</pdfrwt>
<totfact> 0.65926086E-14</totfact>
</mgrwt>
</event>
<event>
 4    1 -0.5010510E-019  0.1493434E+02  0.7818608E-02  0.1870079E+00
          2   -1    0    0  501    0  0.00000000000E+00  0.00000000000E+00  0.11887086249E+03  0.11887086252E+03  0.25500000000E-02 0. -1.
         -2   -1    0    0    0  501 -0.00000000000E+00 -0.00000000000E+00 -0.46906534030E+00  0.46907227159E+00  0.25500000000E-02 0.  1.
         31    1    1    2    0    0 -0.54329766111E+00 -0.19274039939E-01  0.58686308588E+02  0.59159422627E+02  0.74470750000E+01 0.  1.
        -31    1    1    2    0    0  0.54329766111E+00  0.19274039939E-01  0.59715488564E+02  0.60180512164E+02  0.74470750000E+01 0. -1.
<mgrwt>
<rscale>  0 0.14934339E+02</rscale>
<asrwt>0</asrwt>
<pdfrwt beam="1">  1        2 0.98678608E+00 0.14934339E+02</pdfrwt>
<pdfrwt beam="2">  1       -2 0.99621563E+00 0.14934339E+02</pdfrwt>
<totfact>-0.24108281E-13</totfact>
</mgrwt>
</event>
<event>
 4    1 -0.5010510E-019  0.1498165E+02  0.7818608E-02  0.1868629E+00
         -2   -1    0    0    0  501 -0.00000000000E+00  0.00000000000E+00  0.11972549901E+03  0.11972549904E+03  0.25500000000E-02 0.  1.
          2   -1    0    0  501    0  0.00000000000E+00 -0.00000000000E+00 -0.46867236895E+00  0.46867930604E+00  0.25500000000E-02 0. -1.
         31    1    1    2    0    0  0.49750720704E+00  0.60709477355E+00  0.61180941520E+02  0.61637509755E+02  0.74470750000E+01 0. -1.
        -31    1    1    2    0    0 -0.49750720704E+00 -0.60709477355E+00  0.58075885123E+02  0.58556668590E+02  0.74470750000E+01 0.  1.
<mgrwt>
<rscale>  0 0.14981649E+02</rscale>
<asrwt>0</asrwt>
<pdfrwt beam="2">  1        2 0.99541222E+00 0.14981649E+02</pdfrwt>
<pdfrwt beam="1">  1       -2 0.99384956E+00 0.14981649E+02</pdfrwt>
<totfact>-0.11030271E-13</totfact>
</mgrwt>
</event>
<event>
 4    1 -0.5010510E-019  0.1499866E+02  0.7818608E-02  0.1868110E+00
         -2   -1    0    0    0  501 -0.00000000000E+00  0.00000000000E+00  0.11998322392E+03  0.11998322395E+03  0.25500000000E-02 0. -1.
          2   -1    0    0  501    0  0.00000000000E+00 -0.00000000000E+00 -0.46872797640E+00  0.46873491268E+00  0.25500000000E-02 0.  1.
         31    1    1    2    0    0  0.55673827318E+00 -0.35818610054E+00  0.55055719628E+02  0.55561042509E+02  0.74470750000E+01 0.  1.
        -31    1    1    2    0    0 -0.55673827318E+00  0.35818610054E+00  0.64458776318E+02  0.64890916354E+02  0.74470750000E+01 0. -1.
<mgrwt>
<rscale>  0 0.14998655E+02</rscale>
<asrwt>0</asrwt>
<pdfrwt beam="2">  1        2 0.99553821E+00 0.14998655E+02</pdfrwt>
<pdfrwt beam="1">  1       -2 0.99598107E+00 0.14998655E+02</pdfrwt>
<totfact>-0.10558601E-13</totfact>
</mgrwt>
</event>
<event>
 4    1 -0.5010510E-019  0.1489431E+02  0.7818608E-02  0.1871311E+00
         -2   -1    0    0    0  501 -0.00000000000E+00  0.00000000000E+00  0.11956476082E+03  0.11956476085E+03  0.25500000000E-02 0.  1.
          2   -1    0    0  501    0  0.00000000000E+00 -0.00000000000E+00 -0.46384669898E+00  0.46385370825E+00  0.25500000000E-02 0. -1.
         31    1    1    2    0    0  0.14837121273E-01 -0.19952732995E-01  0.59747459016E+02  0.60209786606E+02  0.74470750000E+01 0.  1.
        -31    1    1    2    0    0 -0.14837121273E-01  0.19952732995E-01  0.59353455107E+02  0.59818827951E+02  0.74470750000E+01 0. -1.
<mgrwt>
<rscale>  0 0.14894313E+02</rscale>
<asrwt>0</asrwt>
<pdfrwt beam="2">  1        2 0.98519759E+00 0.14894313E+02</pdfrwt>
<pdfrwt beam="1">  1       -2 0.99248056E+00 0.14894313E+02</pdfrwt>
<totfact>-0.25994420E-13</totfact>
</mgrwt>
</event>
<event>
 4    1  0.5010510E-019  0.1490345E+02  0.7818608E-02  0.1871029E+00
         -2   -1    0    0    0  501 -0.00000000000E+00  0.00000000000E+00  0.11860333092E+03  0.11860333094E+03  0.25500000000E-02 0.  1.
          2   -1    0    0  501    0  0.00000000000E+00 -0.00000000000E+00 -0.46818096539E+00  0.46818790977E+00  0.25500000000E-02 0. -1.
         31    1    1    2    0    0 -0.18278931400E+00  0.14467233026E+00  0.60045075165E+02  0.60505572633E+02  0.74470750000E+01 0.  1.
        -31    1    1    2    0    0  0.18278931400E+00 -0.14467233026E+00  0.58090074785E+02  0.58565946220E+02  0.74470750000E+01 0. -1.
<mgrwt>
<rscale>  0 0.14903454E+02</rscale>
<asrwt>0</asrwt>
<pdfrwt beam="2">  1        2 0.99433597E+00 0.14903454E+02</pdfrwt>
<pdfrwt beam="1">  1       -2 0.98456663E+00 0.14903454E+02</pdfrwt>
<totfact> 0.58120169E-13</totfact>
</mgrwt>
</event>
<event>
 4    1  0.5010510E-019  0.1490384E+02  0.7818608E-02  0.1871017E+00
          2   -1    0    0  501    0  0.00000000000E+00  0.00000000000E+00  0.12038252277E+03  0.12038252280E+03  0.25500000000E-02 0.  1.
         -2   -1    0    0    0  501 -0.00000000000E+00 -0.00000000000E+00 -0.46128522218E+00  0.46129227037E+00  0.25500000000E-02 0. -1.
         31    1    1    2    0    0  0.17462390547E+00 -0.20407843820E+00  0.59910186886E+02  0.60371860666E+02  0.74470750000E+01 0.  1.
        -31    1    1    2    0    0 -0.17462390547E+00  0.20407843820E+00  0.60011050662E+02  0.60471954401E+02  0.74470750000E+01 0. -1.
<mgrwt>
<rscale>  0 0.14903839E+02</rscale>
<asrwt>0</asrwt>
<pdfrwt beam="1">  1        2 0.99922121E+00 0.14903839E+02</pdfrwt>
<pdfrwt beam="2">  1       -2 0.97980365E+00 0.14903839E+02</pdfrwt>
<totfact> 0.35792611E-13</totfact>
</mgrwt>
</event>
<event>
 4    1 -0.5010510E-019  0.1491513E+02  0.7818608E-02  0.1870669E+00
         -2   -1    0    0    0  501 -0.00000000000E+00  0.00000000000E+00  0.11967170794E+03  0.11967170797E+03  0.25500000000E-02 0. -1.
          2   -1    0    0  501    0  0.00000000000E+00 -0.00000000000E+00 -0.46472855686E+00  0.46473555282E+00  0.25500000000E-02 0.  1.
         31    1    1    2    0    0 -0.12409715754E+00 -0.40892198186E-01  0.62609550726E+02  0.63051025689E+02  0.74470750000E+01 0. -1.
        -31    1    1    2    0    0  0.12409715754E+00  0.40892198186E-01  0.56597428659E+02  0.57085417833E+02  0.74470750000E+01 0.  1.
<mgrwt>
<rscale>  0 0.14915131E+02</rscale>
<asrwt>0</asrwt>
<pdfrwt beam="2">  1        2 0.98706677E+00 0.14915131E+02</pdfrwt>
<pdfrwt beam="1">  1       -2 0.99337217E+00 0.14915131E+02</pdfrwt>
<totfact>-0.23288865E-13</totfact>
</mgrwt>
</event>
<event>
 4    1  0.5010510E-019  0.1492838E+02  0.7818608E-02  0.1870262E+00
         -2   -1    0    0    0  501 -0.00000000000E+00  0.00000000000E+00  0.11860823091E+03  0.11860823093E+03  0.25500000000E-02 0.  1.
          2   -1    0    0  501    0  0.00000000000E+00 -0.00000000000E+00 -0.46972922753E+00  0.46973614902E+00  0.25500000000E-02 0. -1.
         31    1    1    2    0    0  0.43336654204E+00 -0.22675854104E+00  0.58059827342E+02  0.58537523889E+02  0.74470750000E+01 0. -1.
        -31    1    1    2    0    0 -0.43336654204E+00  0.22675854104E+00  0.60078674336E+02  0.60540443193E+02  0.74470750000E+01 0. -1.
<mgrwt>
<rscale>  0 0.14928385E+02</rscale>
<asrwt>0</asrwt>
<pdfrwt beam="2">  1        2 0.99761135E+00 0.14928385E+02</pdfrwt>
<pdfrwt beam="1">  1       -2 0.98461995E+00 0.14928385E+02</pdfrwt>
<totfact> 0.33824656E-13</totfact>
</mgrwt>
</event>
<event>
 4    1 -0.5010510E-019  0.1497874E+02  0.7818608E-02  0.1868718E+00
          2   -1    0    0  501    0  0.00000000000E+00  0.00000000000E+00  0.11990456948E+03  0.11990456950E+03  0.25500000000E-02 0.  1.
         -2   -1    0    0    0  501 -0.00000000000E+00 -0.00000000000E+00 -0.46779092753E+00  0.46779787770E+00  0.25500000000E-02 0. -1.
         31    1    1    2    0    0 -0.72609945362E+00 -0.95527818839E-01  0.62200755323E+02  0.62649255661E+02  0.74470750000E+01 0.  1.
        -31    1    1    2    0    0  0.72609945362E+00  0.95527818839E-01  0.57236023227E+02  0.57723111722E+02  0.74470750000E+01 0.  1.
<mgrwt>
<rscale>  0 0.14978744E+02</rscale>
<asrwt>0</asrwt>
<pdfrwt beam="1">  1        2 0.99532295E+00 0.14978744E+02</pdfrwt>
<pdfrwt beam="2">  1       -2 0.99355322E+00 0.14978744E+02</pdfrwt>
<totfact>-0.10830847E-13</totfact>
</mgrwt>
</event>
<event>
 4    1 -0.5010510E-019  0.1494688E+02  0.7818608E-02  0.1869694E+00
          2   -1    0    0  501    0  0.00000000000E+00  0.00000000000E+00  0.11899638007E+03  0.11899638009E+03  0.25500000000E-02 0. -1.
         -2   -1    0    0    0  501 -0.00000000000E+00 -0.00000000000E+00 -0.46935816647E+00  0.46936509343E+00  0.25500000000E-02 0.  1.
         31    1    1    2    0    0  0.46723302485E+00  0.21821100954E+00  0.62117351466E+02  0.62564288551E+02  0.74470750000E+01 0. -1.
        -31    1    1    2    0    0 -0.46723302485E+00 -0.21821100954E+00  0.56409670435E+02  0.56901456637E+02  0.74470750000E+01 0.  1.
<mgrwt>
<rscale>  0 0.14946884E+02</rscale>
<asrwt>0</asrwt>
<pdfrwt beam="1">  1        2 0.98782637E+00 0.14946884E+02</pdfrwt>
<pdfrwt beam="2">  1       -2 0.99683923E+00 0.14946884E+02</pdfrwt>
<totfact>-0.18898749E-13</totfact>
</mgrwt>
</event>
<event>
 4    1 -0.5010510E-019  0.1492701E+02  0.7818608E-02  0.1870304E+00
         -2   -1    0    0    0  501 -0.00000000000E+00  0.00000000000E+00  0.12004978855E+03  0.12004978857E+03  0.25500000000E-02 0.  1.
          2   -1    0    0  501    0  0.00000000000E+00 -0.00000000000E+00 -0.46400287249E+00  0.46400987940E+00  0.25500000000E-02 0. -1.
         31    1    1    2    0    0 -0.71495891689E-01 -0.46800723749E+00  0.60957333845E+02  0.61412373493E+02  0.74470750000E+01 0. -1.
        -31    1    1    2    0    0  0.71495891689E-01  0.46800723749E+00  0.58628451829E+02  0.59101424960E+02  0.74470750000E+01 0. -1.
<mgrwt>
<rscale>  0 0.14927005E+02</rscale>
<asrwt>0</asrwt>
<pdfrwt beam="2">  1        2 0.98554340E+00 0.14927005E+02</pdfrwt>
<pdfrwt beam="1">  1       -2 0.99649240E+00 0.14927005E+02</pdfrwt>
<totfact>-0.27997307E-13</totfact>
</mgrwt>
</event>
<event>
 4    1  0.5010510E-019  0.1492523E+02  0.7818608E-02  0.1870359E+00
          2   -1    0    0  501    0  0.00000000000E+00  0.00000000000E+00  0.12012629914E+03  0.12012629917E+03  0.25500000000E-02 0.  1.
         -2   -1    0    0    0  501 -0.00000000000E+00 -0.00000000000E+00 -0.46359704672E+00  0.46360405976E+00  0.25500000000E-02 0. -1.
         31    1    1    2    0    0 -0.23296027627E+00  0.41504851235E+00  0.59250957535E+02  0.59719020677E+02  0.74470750000E+01 0.  1.
        -31    1    1    2    0    0  0.23296027627E+00 -0.41504851235E+00  0.60411744560E+02  0.60870882551E+02  0.74470750000E+01 0.  1.
<mgrwt>
<rscale>  0 0.14925230E+02</rscale>
<asrwt>0</asrwt>
<pdfrwt beam="1">  1        2 0.99712169E+00 0.14925230E+02</pdfrwt>
<pdfrwt beam="2">  1       -2 0.98468717E+00 0.14925230E+02</pdfrwt>
<totfact> 0.37938475E-13</totfact>
</mgrwt>
</event>
<event>
 4    1 -0.5010510E-019  0.1494685E+02  0.7818608E-02  0.1869695E+00
         -2   -1    0    0    0  501 -0.00000000000E+00  0.00000000000E+00  0.12041117988E+03  0.12041117991E+03  0.25500000000E-02 0. -1.
          2   -1    0    0  501    0  0.00000000000E+00 -0.00000000000E+00 -0.46384114771E+00  0.46384815706E+00  0.25500000000E-02 0.  1.
         31    1    1    2    0    0  0.34745846142E+00  0.47786396350E+00  0.58275830375E+02  0.58752705583E+02  0.74470750000E+01 0.  1.
        -31    1    1    2    0    0 -0.34745846142E+00 -0.47786396350E+00  0.61671508362E+02  0.62122322486E+02  0.74470750000E+01 0. -1.
<mgrwt>
<rscale>  0 0.14946851E+02</rscale>
<asrwt>0</asrwt>
<pdfrwt beam="2">  1        2 0.98521261E+00 0.14946851E+02</pdfrwt>
<pdfrwt beam="1">  1       -2 0.99947930E+00 0.14946851E+02</pdfrwt>
<totfact>-0.58978174E-14</totfact>
</mgrwt>
</event>
<event>
 4    1 -0.5010510E-019  0.1491361E+02  0.7818608E-02  0.1870716E+00
         -2   -1    0    0    0  501 -0.00000000000E+00  0.00000000000E+00  0.11989938158E+03  0.11989938160E+03  0.25500000000E-02 0.  1.
          2   -1    0    0  501    0  0.00000000000E+00 -0.00000000000E+00 -0.46375125626E+00  0.46375826697E+00  0.25500000000E-02 0. -1.
         31    1    1    2    0    0 -0.26593944469E+00 -0.14416739781E+00  0.57851437109E+02  0.58329574056E+02  0.74470750000E+01 0. -1.
        -31    1    1    2    0    0  0.26593944469E+00  0.14416739781E+00  0.61584193212E+02  0.62033565814E+02  0.74470750000E+01 0.  1.
<mgrwt>
<rscale>  0 0.14913606E+02</rscale>
<asrwt>0</asrwt>
<pdfrwt beam="2">  1        2 0.98500628E+00 0.14913606E+02</pdfrwt>
<pdfrwt beam="1">  1       -2 0.99524665E+00 0.14913606E+02</pdfrwt>
<totfact>-0.34408574E-13</totfact>
</mgrwt>
</event>
<event>
 4    1 -0.5010510E-019  0.1492830E+02  0.7818608E-02  0.1870264E+00
          2   -1    0    0  501    0  0.00000000000E+00  0.00000000000E+00  0.11844119759E+03  0.11844119762E+03  0.25500000000E-02 0. -1.
         -2   -1    0    0    0  501 -0.00000000000E+00 -0.00000000000E+00 -0.47038639349E+00  0.47039330531E+00  0.25500000000E-02 0.  1.
         31    1    1    2    0    0 -0.83066334791E-01  0.48188205192E+00  0.57993580066E+02  0.58471816846E+02  0.74470750000E+01 0. -1.
        -31    1    1    2    0    0  0.83066334791E-01 -0.48188205192E+00  0.59977231130E+02  0.60439774077E+02  0.74470750000E+01 0.  1.
<mgrwt>
<rscale>  0 0.14928301E+02</rscale>
<asrwt>0</asrwt>
<pdfrwt beam="1">  1        2 0.98324423E+00 0.14928301E+02</pdfrwt>
<pdfrwt beam="2">  1       -2 0.99899594E+00 0.14928301E+02</pdfrwt>
<totfact>-0.15160590E-13</totfact>
</mgrwt>
</event>
<event>
 4    1 -0.5010510E-019  0.1493750E+02  0.7818608E-02  0.1869982E+00
          2   -1    0    0  501    0  0.00000000000E+00  0.00000000000E+00  0.11851428594E+03  0.11851428596E+03  0.25500000000E-02 0. -1.
         -2   -1    0    0    0  501 -0.00000000000E+00 -0.00000000000E+00 -0.47067578528E+00  0.47068269285E+00  0.25500000000E-02 0.  1.
         31    1    1    2    0    0  0.13887799917E+00  0.41964817570E+00  0.61870516984E+02  0.62318658439E+02  0.74470750000E+01 0. -1.
        -31    1    1    2    0    0 -0.13887799917E+00 -0.41964817570E+00  0.56173093166E+02  0.56666310217E+02  0.74470750000E+01 0.  1.
<mgrwt>
<rscale>  0 0.14937499E+02</rscale>
<asrwt>0</asrwt>
<pdfrwt beam="1">  1        2 0.98385097E+00 0.14937499E+02</pdfrwt>
<pdfrwt beam="2">  1       -2 0.99961055E+00 0.14937499E+02</pdfrwt>
<totfact>-0.55729768E-14</totfact>
</mgrwt>
</event>
<event>
 4    1  0.5010510E-019  0.1493616E+02  0.7818608E-02  0.1870023E+00
          2   -1    0    0  501    0  0.00000000000E+00  0.00000000000E+00  0.11976101329E+03  0.11976101332E+03  0.25500000000E-02 0.  1.
         -2   -1    0    0    0  501 -0.00000000000E+00 -0.00000000000E+00 -0.46569253261E+00  0.46569951410E+00  0.25500000000E-02 0. -1.
         31    1    1    2    0    0 -0.47275819165E+00 -0.29960954343E+00  0.59697707098E+02  0.60163015425E+02  0.74470750000E+01 0.  1.
        -31    1    1    2    0    0  0.47275819165E+00  0.29960954343E+00  0.59597613657E+02  0.60063697404E+02  0.74470750000E+01 0.  1.
<mgrwt>
<rscale>  0 0.14936162E+02</rscale>
<asrwt>0</asrwt>
<pdfrwt beam="1">  1        2 0.99411858E+00 0.14936162E+02</pdfrwt>
<pdfrwt beam="2">  1       -2 0.98910911E+00 0.14936162E+02</pdfrwt>
<totfact> 0.70217108E-14</totfact>
</mgrwt>
</event>
<event>
 4    1 -0.5010510E-019  0.1492203E+02  0.7818608E-02  0.1870457E+00
         -2   -1    0    0    0  501 -0.00000000000E+00  0.00000000000E+00  0.12023113911E+03  0.12023113914E+03  0.25500000000E-02 0. -1.
          2   -1    0    0  501    0  0.00000000000E+00 -0.00000000000E+00 -0.46299419431E+00  0.46300121649E+00  0.25500000000E-02 0.  1.
         31    1    1    2    0    0  0.43091930647E+00  0.77010167165E-02  0.61085615938E+02  0.61539395117E+02  0.74470750000E+01 0. -1.
        -31    1    1    2    0    0 -0.43091930647E+00 -0.77010167165E-02  0.58682528976E+02  0.59154745235E+02  0.74470750000E+01 0.  1.
<mgrwt>
<rscale>  0 0.14922030E+02</rscale>
<asrwt>0</asrwt>
<pdfrwt beam="2">  1        2 0.98341493E+00 0.14922030E+02</pdfrwt>
<pdfrwt beam="1">  1       -2 0.99798360E+00 0.14922030E+02</pdfrwt>
<totfact>-0.27006618E-13</totfact>
</mgrwt>
</event>
<event>
 4    1  0.5010510E-019  0.1491904E+02  0.7818608E-02  0.1870549E+00
         -2   -1    0    0    0  501 -0.00000000000E+00  0.00000000000E+00  0.11891091375E+03  0.11891091377E+03  0.25500000000E-02 0. -1.
          2   -1    0    0  501    0  0.00000000000E+00 -0.00000000000E+00 -0.46794695480E+00  0.46795390265E+00  0.25500000000E-02 0.  1.
         31    1    1    2    0    0 -0.42501247403E+00  0.67642926512E-01  0.59087803056E+02  0.59556801519E+02  0.74470750000E+01 0.  1.
        -31    1    1    2    0    0  0.42501247403E+00 -0.67642926512E-01  0.59355163737E+02  0.59822066158E+02  0.74470750000E+01 0. -1.
<mgrwt>
<rscale>  0 0.14919037E+02</rscale>
<asrwt>0</asrwt>
<pdfrwt beam="2">  1        2 0.99385103E+00 0.14919037E+02</pdfrwt>
<pdfrwt beam="1">  1       -2 0.98710800E+00 0.14919037E+02</pdfrwt>
<totfact> 0.26013274E-13</totfact>
</mgrwt>
</event>
<event>
 4    1 -0.5010510E-019  0.1501279E+02  0.7818608E-02  0.1867678E+00
         -2   -1    0    0    0  501 -0.00000000000E+00  0.00000000000E+00  0.11999555103E+03  0.11999555106E+03  0.25500000000E-02 0.  1.
          2   -1    0    0  501    0  0.00000000000E+00 -0.00000000000E+00 -0.46956371807E+00  0.46957064200E+00  0.25500000000E-02 0. -1.
         31    1    1    2    0    0  0.31779599245E+00  0.49501951059E+00  0.53860942535E+02  0.54376521546E+02  0.74470750000E+01 0. -1.
        -31    1    1    2    0    0 -0.31779599245E+00 -0.49501951059E+00  0.65665044776E+02  0.66088600152E+02  0.74470750000E+01 0.  1.
<mgrwt>
<rscale>  0 0.15012791E+02</rscale>
<asrwt>0</asrwt>
<pdfrwt beam="2">  1        2 0.99730670E+00 0.15012791E+02</pdfrwt>
<pdfrwt beam="1">  1       -2 0.99608991E+00 0.15012791E+02</pdfrwt>
<totfact>-0.75948394E-14</totfact>
</mgrwt>
</event>
<event>
 4    1 -0.5010510E-019  0.1491062E+02  0.7818608E-02  0.1870808E+00
         -2   -1    0    0    0  501 -0.00000000000E+00  0.00000000000E+00  0.11988906888E+03  0.11988906890E+03  0.25500000000E-02 0.  1.
          2   -1    0    0  501    0  0.00000000000E+00 -0.00000000000E+00 -0.46360557749E+00  0.46361259041E+00  0.25500000000E-02 0. -1.
         31    1    1    2    0    0 -0.39428399674E-01 -0.78745122815E-01  0.62449746842E+02  0.62892269494E+02  0.74470750000E+01 0.  1.
        -31    1    1    2    0    0  0.39428399674E-01  0.78745122815E-01  0.56975716457E+02  0.57460412000E+02  0.74470750000E+01 0. -1.
<mgrwt>
<rscale>  0 0.14910622E+02</rscale>
<asrwt>0</asrwt>
<pdfrwt beam="2">  1        2 0.98469773E+00 0.14910622E+02</pdfrwt>
<pdfrwt beam="1">  1       -2 0.99516018E+00 0.14910622E+02</pdfrwt>
<totfact>-0.36302204E-13</totfact>
</mgrwt>
</event>
<event>
 4    1 -0.5010510E-019  0.1493073E+02  0.7818608E-02  0.1870190E+00
         -2   -1    0    0    0  501 -0.00000000000E+00  0.00000000000E+00  0.12024453823E+03  0.12024453826E+03  0.25500000000E-02 0. -1.
          2   -1    0    0  501    0  0.00000000000E+00 -0.00000000000E+00 -0.46348288361E+00  0.46348989838E+00  0.25500000000E-02 0.  1.
         31    1    1    2    0    0  0.31727146102E+00  0.24036045416E+00  0.62624366703E+02  0.63066858693E+02  0.74470750000E+01 0. -1.
        -31    1    1    2    0    0 -0.31727146102E+00 -0.24036045416E+00  0.57156688648E+02  0.57641169468E+02  0.74470750000E+01 0. -1.
<mgrwt>
<rscale>  0 0.14930735E+02</rscale>
<asrwt>0</asrwt>
<pdfrwt beam="2">  1        2 0.98444934E+00 0.14930735E+02</pdfrwt>
<pdfrwt beam="1">  1       -2 0.99809843E+00 0.14930735E+02</pdfrwt>
<totfact>-0.21668310E-13</totfact>
</mgrwt>
</event>
<event>
 4    1  0.5010510E-019  0.1490848E+02  0.7818608E-02  0.1870874E+00
          2   -1    0    0  501    0  0.00000000000E+00  0.00000000000E+00  0.12011218747E+03  0.12011218749E+03  0.25500000000E-02 0.  1.
         -2   -1    0    0    0  501 -0.00000000000E+00 -0.00000000000E+00 -0.46261126599E+00  0.46261829398E+00  0.25500000000E-02 0. -1.
         31    1    1    2    0    0 -0.27272496647E-01  0.23305596352E+00  0.57985994955E+02  0.58462719710E+02  0.74470750000E+01 0. -1.
        -31    1    1    2    0    0  0.27272496647E-01 -0.23305596352E+00  0.61663581245E+02  0.62112086077E+02  0.74470750000E+01 0.  1.
<mgrwt>
<rscale>  0 0.14908478E+02</rscale>
<asrwt>0</asrwt>
<pdfrwt beam="1">  1        2 0.99699686E+00 0.14908478E+02</pdfrwt>
<pdfrwt beam="2">  1       -2 0.98260098E+00 0.14908478E+02</pdfrwt>
<totfact> 0.64107899E-13</totfact>
</mgrwt>
</event>
<event>
 4    1  0.5010510E-019  0.1493205E+02  0.7818608E-02  0.1870149E+00
          2   -1    0    0  501    0  0.00000000000E+00  0.00000000000E+00  0.11980421708E+03  0.11980421711E+03  0.25500000000E-02 0.  1.
         -2   -1    0    0    0  501 -0.00000000000E+00 -0.00000000000E+00 -0.46526825183E+00  0.46527523968E+00  0.25500000000E-02 0. -1.
         31    1    1    2    0    0  0.27831343197E+00  0.35351028580E+00  0.57388960877E+02  0.57871877320E+02  0.74470750000E+01 0. -1.
        -31    1    1    2    0    0 -0.27831343197E+00 -0.35351028580E+00  0.61949987951E+02  0.62397615027E+02  0.74470750000E+01 0.  1.
<mgrwt>
<rscale>  0 0.14932049E+02</rscale>
<asrwt>0</asrwt>
<pdfrwt beam="1">  1        2 0.99447231E+00 0.14932049E+02</pdfrwt>
<pdfrwt beam="2">  1       -2 0.98821284E+00 0.14932049E+02</pdfrwt>
<totfact> 0.14015558E-13</totfact>
</mgrwt>
</event>
<event>
 4    1 -0.5010510E-019  0.1497322E+02  0.7818608E-02  0.1868887E+00
         -2   -1    0    0    0  501 -0.00000000000E+00  0.00000000000E+00  0.11998052541E+03  0.11998052544E+03  0.25500000000E-02 0.  1.
          2   -1    0    0  501    0  0.00000000000E+00 -0.00000000000E+00 -0.46715017388E+00  0.46715713359E+00  0.25500000000E-02 0. -1.
         31    1    1    2    0    0  0.22740924513E-02 -0.25444470399E+00  0.53924384468E+02  0.54436779053E+02  0.74470750000E+01 0. -1.
        -31    1    1    2    0    0 -0.22740924513E-02  0.25444470399E+00  0.65588990766E+02  0.66010903517E+02  0.74470750000E+01 0.  1.
<mgrwt>
<rscale>  0 0.14973222E+02</rscale>
<asrwt>0</asrwt>
<pdfrwt beam="2">  1        2 0.99220005E+00 0.14973222E+02</pdfrwt>
<pdfrwt beam="1">  1       -2 0.99594571E+00 0.14973222E+02</pdfrwt>
<totfact>-0.14079491E-13</totfact>
</mgrwt>
</event>
<event>
 4    1 -0.5010510E-019  0.1496348E+02  0.7818608E-02  0.1869185E+00
         -2   -1    0    0    0  501 -0.00000000000E+00  0.00000000000E+00  0.12009957509E+03  0.12009957512E+03  0.25500000000E-02 0.  1.
          2   -1    0    0  501    0  0.00000000000E+00 -0.00000000000E+00 -0.46607983481E+00  0.46608681049E+00  0.25500000000E-02 0. -1.
         31    1    1    2    0    0 -0.32636686515E+00 -0.45002387609E+00  0.63495422663E+02  0.63933063919E+02  0.74470750000E+01 0.  1.
        -31    1    1    2    0    0  0.32636686515E+00  0.45002387609E+00  0.56138072596E+02  0.56632598013E+02  0.74470750000E+01 0. -1.
<mgrwt>
<rscale>  0 0.14963477E+02</rscale>
<asrwt>0</asrwt>
<pdfrwt beam="2">  1        2 0.98993934E+00 0.14963477E+02</pdfrwt>
<pdfrwt beam="1">  1       -2 0.99692125E+00 0.14963477E+02</pdfrwt>
<totfact>-0.14629443E-13</totfact>
</mgrwt>
</event>
<event>
 4    1 -0.5010510E-019  0.1496631E+02  0.7818608E-02  0.1869098E+00
          2   -1    0    0  501    0  0.00000000000E+00  0.00000000000E+00  0.11977384365E+03  0.11977384367E+03  0.25500000000E-02 0.  1.
         -2   -1    0    0    0  501 -0.00000000000E+00 -0.00000000000E+00 -0.46752458473E+00  0.46753153886E+00  0.25500000000E-02 0. -1.
         31    1    1    2    0    0  0.20895684640E+00 -0.40977668111E+00  0.55058011915E+02  0.55561274121E+02  0.74470750000E+01 0. -1.
        -31    1    1    2    0    0 -0.20895684640E+00  0.40977668111E+00  0.64248307148E+02  0.64680101092E+02  0.74470750000E+01 0.  1.
<mgrwt>
<rscale>  0 0.14966314E+02</rscale>
<asrwt>0</asrwt>
<pdfrwt beam="1">  1        2 0.99423982E+00 0.14966314E+02</pdfrwt>
<pdfrwt beam="2">  1       -2 0.99298552E+00 0.14966314E+02</pdfrwt>
<totfact>-0.11079580E-13</totfact>
</mgrwt>
</event>
<event>
 4    1 -0.5010510E-019  0.1493255E+02  0.7818608E-02  0.1870134E+00
          2   -1    0    0  501    0  0.00000000000E+00  0.00000000000E+00  0.11894653402E+03  0.11894653405E+03  0.25500000000E-02 0. -1.
         -2   -1    0    0    0  501 -0.00000000000E+00 -0.00000000000E+00 -0.46865450562E+00  0.46866144298E+00  0.25500000000E-02 0.  1.
         31    1    1    2    0    0 -0.50485280651E+00 -0.15426774245E+00  0.58539764743E+02  0.59013910709E+02  0.74470750000E+01 0. -1.
        -31    1    1    2    0    0  0.50485280651E+00  0.15426774245E+00  0.59938114775E+02  0.60401284786E+02  0.74470750000E+01 0.  1.
<mgrwt>
<rscale>  0 0.14932548E+02</rscale>
<asrwt>0</asrwt>
<pdfrwt beam="1">  1        2 0.98740839E+00 0.14932548E+02</pdfrwt>
<pdfrwt beam="2">  1       -2 0.99534902E+00 0.14932548E+02</pdfrwt>
<totfact>-0.23835384E-13</totfact>
</mgrwt>
</event>
<event>
 4    1 -0.5010510E-019  0.1498084E+02  0.7818608E-02  0.1868654E+00
          2   -1    0    0  501    0  0.00000000000E+00  0.00000000000E+00  0.11993293634E+03  0.11993293636E+03  0.25500000000E-02 0.  1.
         -2   -1    0    0    0  501 -0.00000000000E+00 -0.00000000000E+00 -0.46781141178E+00  0.46781836165E+00  0.25500000000E-02 0. -1.
         31    1    1    2    0    0 -0.77292709682E+00  0.13478430060E+00  0.61168173456E+02  0.61624832277E+02  0.74470750000E+01 0.  1.
        -31    1    1    2    0    0  0.77292709682E+00 -0.13478430060E+00  0.58296951470E+02  0.58775922450E+02  0.74470750000E+01 0. -1.
<mgrwt>
<rscale>  0 0.14980843E+02</rscale>
<asrwt>0</asrwt>
<pdfrwt beam="1">  1        2 0.99555768E+00 0.14980843E+02</pdfrwt>
<pdfrwt beam="2">  1       -2 0.99359747E+00 0.14980843E+02</pdfrwt>
<totfact>-0.10583959E-13</totfact>
</mgrwt>
</event>
<event>
 4    1 -0.5010510E-019  0.1495675E+02  0.7818608E-02  0.1869391E+00
          2   -1    0    0  501    0  0.00000000000E+00  0.00000000000E+00  0.11968472815E+03  0.11968472817E+03  0.25500000000E-02 0. -1.
         -2   -1    0    0    0  501 -0.00000000000E+00 -0.00000000000E+00 -0.46727493885E+00  0.46728189670E+00  0.25500000000E-02 0.  1.
         31    1    1    2    0    0  0.64532038891E+00 -0.22515648584E+00  0.59562053958E+02  0.60029695415E+02  0.74470750000E+01 0.  1.
        -31    1    1    2    0    0 -0.64532038891E+00  0.22515648584E+00  0.59655399251E+02  0.60122314657E+02  0.74470750000E+01 0.  1.
<mgrwt>
<rscale>  0 0.14956750E+02</rscale>
<asrwt>0</asrwt>
<pdfrwt beam="1">  1        2 0.99350089E+00 0.14956750E+02</pdfrwt>
<pdfrwt beam="2">  1       -2 0.99245449E+00 0.14956750E+02</pdfrwt>
<totfact>-0.10413576E-13</totfact>
</mgrwt>
</event>
<event>
 4    1 -0.5010510E-019  0.1494257E+02  0.7818608E-02  0.1869826E+00
          2   -1    0    0  501    0  0.00000000000E+00  0.00000000000E+00  0.11908308012E+03  0.11908308015E+03  0.25500000000E-02 0.  1.
         -2   -1    0    0    0  501 -0.00000000000E+00 -0.00000000000E+00 -0.46874580453E+00  0.46875274054E+00  0.25500000000E-02 0. -1.
         31    1    1    2    0    0  0.44563768627E+00  0.22818429027E+00  0.56647312281E+02  0.57136919550E+02  0.74470750000E+01 0. -1.
        -31    1    1    2    0    0 -0.44563768627E+00 -0.22818429027E+00  0.61967022036E+02  0.62414913338E+02  0.74470750000E+01 0.  1.
<mgrwt>
<rscale>  0 0.14942571E+02</rscale>
<asrwt>0</asrwt>
<pdfrwt beam="1">  1        2 0.98853820E+00 0.14942571E+02</pdfrwt>
<pdfrwt beam="2">  1       -2 0.99554664E+00 0.14942571E+02</pdfrwt>
<totfact>-0.20386637E-13</totfact>
</mgrwt>
</event>
<event>
 4    1  0.5010510E-019  0.1491957E+02  0.7818608E-02  0.1870533E+00
          2   -1    0    0  501    0  0.00000000000E+00  0.00000000000E+00  0.11966057667E+03  0.11966057670E+03  0.25500000000E-02 0.  1.
         -2   -1    0    0    0  501 -0.00000000000E+00 -0.00000000000E+00 -0.46504862981E+00  0.46505562096E+00  0.25500000000E-02 0. -1.
         31    1    1    2    0    0  0.41938311239E+00 -0.76292119352E-01  0.60307946272E+02  0.60767499638E+02  0.74470750000E+01 0.  1.
        -31    1    1    2    0    0 -0.41938311239E+00  0.76292119352E-01  0.58887581768E+02  0.59358132680E+02  0.74470750000E+01 0. -1.
<mgrwt>
<rscale>  0 0.14919572E+02</rscale>
<asrwt>0</asrwt>
<pdfrwt beam="1">  1        2 0.99328278E+00 0.14919572E+02</pdfrwt>
<pdfrwt beam="2">  1       -2 0.98774359E+00 0.14919572E+02</pdfrwt>
<totfact> 0.20127277E-13</totfact>
</mgrwt>
</event>
<event>
 4    1 -0.5010510E-019  0.1494567E+02  0.7818608E-02  0.1869731E+00
         -2   -1    0    0    0  501 -0.00000000000E+00  0.00000000000E+00  0.12033714745E+03  0.12033714748E+03  0.25500000000E-02 0. -1.
          2   -1    0    0  501    0  0.00000000000E+00 -0.00000000000E+00 -0.46405338882E+00  0.46406039497E+00  0.25500000000E-02 0.  1.
         31    1    1    2    0    0  0.49194621052E+00 -0.66915143720E-01  0.56935364248E+02  0.57422479194E+02  0.74470750000E+01 0.  1.
        -31    1    1    2    0    0 -0.49194621052E+00  0.66915143720E-01  0.62937729816E+02  0.63378728681E+02  0.74470750000E+01 0. -1.
<mgrwt>
<rscale>  0 0.14945673E+02</rscale>
<asrwt>0</asrwt>
<pdfrwt beam="2">  1        2 0.98565935E+00 0.14945673E+02</pdfrwt>
<pdfrwt beam="1">  1       -2 0.99886891E+00 0.14945673E+02</pdfrwt>
<totfact>-0.11363956E-13</totfact>
</mgrwt>
</event>
<event>
 4    1 -0.5010510E-019  0.1497906E+02  0.7818608E-02  0.1868708E+00
          2   -1    0    0  501    0  0.00000000000E+00  0.00000000000E+00  0.11927490650E+03  0.11927490652E+03  0.25500000000E-02 0.  1.
         -2   -1    0    0    0  501 -0.00000000000E+00 -0.00000000000E+00 -0.47028003015E+00  0.47028694353E+00  0.25500000000E-02 0. -1.
         31    1    1    2    0    0  0.24897020660E+00  0.75634357081E+00  0.59343372554E+02  0.59814119018E+02  0.74470750000E+01 0. -1.
        -31    1    1    2    0    0 -0.24897020660E+00 -0.75634357081E+00  0.59461253912E+02  0.59931074449E+02  0.74470750000E+01 0.  1.
<mgrwt>
<rscale>  0 0.14979055E+02</rscale>
<asrwt>0</asrwt>
<pdfrwt beam="1">  1        2 0.99013704E+00 0.14979055E+02</pdfrwt>
<pdfrwt beam="2">  1       -2 0.99879856E+00 0.14979055E+02</pdfrwt>
<totfact>-0.67715794E-14</totfact>
</mgrwt>
</event>
<event>
 4    1 -0.5010510E-019  0.1493363E+02  0.7818608E-02  0.1870101E+00
          2   -1    0    0  501    0  0.00000000000E+00  0.00000000000E+00  0.11901593632E+03  0.11901593635E+03  0.25500000000E-02 0.  1.
         -2   -1    0    0    0  501 -0.00000000000E+00 -0.00000000000E+00 -0.46844891623E+00  0.46845585664E+00  0.25500000000E-02 0. -1.
         31    1    1    2    0    0  0.18695896597E+00  0.30730660985E+00  0.56023851987E+02  0.56517787541E+02  0.74470750000E+01 0. -1.
        -31    1    1    2    0    0 -0.18695896597E+00 -0.30730660985E+00  0.62523635421E+02  0.62966604668E+02  0.74470750000E+01 0.  1.
<mgrwt>
<rscale>  0 0.14933627E+02</rscale>
<asrwt>0</asrwt>
<pdfrwt beam="1">  1        2 0.98798055E+00 0.14933627E+02</pdfrwt>
<pdfrwt beam="2">  1       -2 0.99491637E+00 0.14933627E+02</pdfrwt>
<totfact>-0.22407337E-13</totfact>
</mgrwt>
</event>
<event>
 4    1 -0.5010510E-019  0.1495001E+02  0.7818608E-02  0.1869598E+00
          2   -1    0    0  501    0  0.00000000000E+00  0.00000000000E+00  0.11928950862E+03  0.11928950864E+03  0.25500000000E-02 0. -1.
         -2   -1    0    0    0  501 -0.00000000000E+00 -0.00000000000E+00 -0.46840037401E+00  0.46840731514E+00  0.25500000000E-02 0.  1.
         31    1    1    2    0    0 -0.47384948066E+00 -0.35037427585E+00  0.61521548550E+02  0.61973439129E+02  0.74470750000E+01 0.  1.
        -31    1    1    2    0    0  0.47384948066E+00  0.35037427585E+00  0.57299559691E+02  0.57784476829E+02  0.74470750000E+01 0.  1.
<mgrwt>
<rscale>  0 0.14950006E+02</rscale>
<asrwt>0</asrwt>
<pdfrwt beam="1">  1        2 0.99024224E+00 0.14950006E+02</pdfrwt>
<pdfrwt beam="2">  1       -2 0.99482262E+00 0.14950006E+02</pdfrwt>
<totfact>-0.17497546E-13</totfact>
</mgrwt>
</event>
<event>
 4    1  0.5010510E-019  0.1490394E+02  0.7818608E-02  0.1871014E+00
         -2   -1    0    0    0  501 -0.00000000000E+00  0.00000000000E+00  0.11820962694E+03  0.11820962697E+03  0.25500000000E-02 0.  1.
          2   -1    0    0  501    0  0.00000000000E+00 -0.00000000000E+00 -0.46977092101E+00  0.46977784188E+00  0.25500000000E-02 0. -1.
         31    1    1    2    0    0 -0.24925012173E+00 -0.83485261681E-01  0.58376728052E+02  0.58850406962E+02  0.74470750000E+01 0.  1.
        -31    1    1    2    0    0  0.24925012173E+00  0.83485261681E-01  0.59363127968E+02  0.59828997849E+02  0.74470750000E+01 0. -1.
<mgrwt>
<rscale>  0 0.14903940E+02</rscale>
<asrwt>0</asrwt>
<pdfrwt beam="2">  1        2 0.99768628E+00 0.14903940E+02</pdfrwt>
<pdfrwt beam="1">  1       -2 0.98132435E+00 0.14903940E+02</pdfrwt>
<totfact> 0.68627235E-13</totfact>
</mgrwt>
</event>
<event>
 4    1 -0.5010510E-019  0.1499105E+02  0.7818608E-02  0.1868342E+00
          2   -1    0    0  501    0  0.00000000000E+00  0.00000000000E+00  0.11963206301E+03  0.11963206304E+03  0.25500000000E-02 0.  1.
         -2   -1    0    0    0  501 -0.00000000000E+00 -0.00000000000E+00 -0.46962746936E+00  0.46963439235E+00  0.25500000000E-02 0. -1.
         31    1    1    2    0    0 -0.56862995290E+00  0.33026825140E+00  0.63907289899E+02  0.64343088560E+02  0.74470750000E+01 0.  1.
        -31    1    1    2    0    0  0.56862995290E+00 -0.33026825140E+00  0.55255145646E+02  0.55758608874E+02  0.74470750000E+01 0. -1.
<mgrwt>
<rscale>  0 0.14991053E+02</rscale>
<asrwt>0</asrwt>
<pdfrwt beam="1">  1        2 0.99308487E+00 0.14991053E+02</pdfrwt>
<pdfrwt beam="2">  1       -2 0.99742976E+00 0.14991053E+02</pdfrwt>
<totfact>-0.10086310E-13</totfact>
</mgrwt>
</event>
<event>
 4    1  0.5010510E-019  0.1495172E+02  0.7818608E-02  0.1869545E+00
          2   -1    0    0  501    0  0.00000000000E+00  0.00000000000E+00  0.12037630115E+03  0.12037630118E+03  0.25500000000E-02 0.  1.
         -2   -1    0    0    0  501 -0.00000000000E+00 -0.00000000000E+00 -0.46427788601E+00  0.46428488877E+00  0.25500000000E-02 0. -1.
         31    1    1    2    0    0  0.55613467345E+00  0.33291731570E+00  0.60740994759E+02  0.61199244196E+02  0.74470750000E+01 0. -1.
        -31    1    1    2    0    0 -0.55613467345E+00 -0.33291731570E+00  0.59171028507E+02  0.59641341873E+02  0.74470750000E+01 0. -1.
<mgrwt>
<rscale>  0 0.14951720E+02</rscale>
<asrwt>0</asrwt>
<pdfrwt beam="1">  1        2 0.99919451E+00 0.14951720E+02</pdfrwt>
<pdfrwt beam="2">  1       -2 0.98613558E+00 0.14951720E+02</pdfrwt>
<totfact> 0.86010733E-14</totfact>
</mgrwt>
</event>
<event>
 4    1  0.5010510E-019  0.1493390E+02  0.7818608E-02  0.1870092E+00
         -2   -1    0    0    0  501 -0.00000000000E+00  0.00000000000E+00  0.11861653470E+03  0.11861653473E+03  0.25500000000E-02 0.  1.
          2   -1    0    0  501    0  0.00000000000E+00 -0.00000000000E+00 -0.47004356453E+00  0.47005048139E+00  0.25500000000E-02 0. -1.
         31    1    1    2    0    0 -0.20444156399E+00 -0.21244007389E+00  0.55423348486E+02  0.55922208563E+02  0.74470750000E+01 0. -1.
        -31    1    1    2    0    0  0.20444156399E+00  0.21244007389E+00  0.62723142653E+02  0.63164376649E+02  0.74470750000E+01 0.  1.
<mgrwt>
<rscale>  0 0.14933901E+02</rscale>
<asrwt>0</asrwt>
<pdfrwt beam="2">  1        2 0.99827657E+00 0.14933901E+02</pdfrwt>
<pdfrwt beam="1">  1       -2 0.98469121E+00 0.14933901E+02</pdfrwt>
<totfact> 0.25767240E-13</totfact>
</mgrwt>
</event>
<event>
 4    1  0.5010510E-019  0.1490273E+02  0.7818608E-02  0.1871051E+00
         -2   -1    0    0    0  501 -0.00000000000E+00  0.00000000000E+00  0.11892798763E+03  0.11892798766E+03  0.25500000000E-02 0. -1.
          2   -1    0    0  501    0  0.00000000000E+00 -0.00000000000E+00 -0.46685731705E+00  0.46686428112E+00  0.25500000000E-02 0.  1.
         31    1    1    2    0    0 -0.21568726270E+00 -0.85893431270E-01  0.58429649833E+02  0.58902774166E+02  0.74470750000E+01 0.  1.
        -31    1    1    2    0    0  0.21568726270E+00  0.85893431270E-01  0.60031480483E+02  0.60492077777E+02  0.74470750000E+01 0.  1.
<mgrwt>
<rscale>  0 0.14902727E+02</rscale>
<asrwt>0</asrwt>
<pdfrwt beam="2">  1        2 0.99154644E+00 0.14902727E+02</pdfrwt>
<pdfrwt beam="1">  1       -2 0.98724017E+00 0.14902727E+02</pdfrwt>
<totfact> 0.29089291E-13</totfact>
</mgrwt>
</event>
<event>
 4    1 -0.5010510E-019  0.1493530E+02  0.7818608E-02  0.1870049E+00
         -2   -1    0    0    0  501 -0.00000000000E+00  0.00000000000E+00  0.11962232809E+03  0.11962232812E+03  0.25500000000E-02 0.  1.
          2   -1    0    0  501    0  0.00000000000E+00 -0.00000000000E+00 -0.46617835786E+00  0.46618533207E+00  0.25500000000E-02 0. -1.
         31    1    1    2    0    0  0.38883588283E+00 -0.18182417840E-01  0.62746829259E+02  0.63188409001E+02  0.74470750000E+01 0.  1.
        -31    1    1    2    0    0 -0.38883588283E+00  0.18182417840E-01  0.56409320474E+02  0.56900104449E+02  0.74470750000E+01 0. -1.
<mgrwt>
<rscale>  0 0.14935295E+02</rscale>
<asrwt>0</asrwt>
<pdfrwt beam="2">  1        2 0.99013251E+00 0.14935295E+02</pdfrwt>
<pdfrwt beam="1">  1       -2 0.99297585E+00 0.14935295E+02</pdfrwt>
<totfact>-0.15235980E-13</totfact>
</mgrwt>
</event>
<event>
 4    1  0.5010510E-019  0.1490745E+02  0.7818608E-02  0.1870906E+00
          2   -1    0    0  501    0  0.00000000000E+00  0.00000000000E+00  0.12033791965E+03  0.12033791968E+03  0.25500000000E-02 0. -1.
         -2   -1    0    0    0  501 -0.00000000000E+00 -0.00000000000E+00 -0.46167960957E+00  0.46168665174E+00  0.25500000000E-02 0.  1.
         31    1    1    2    0    0  0.13365544185E+00 -0.87236348122E-01  0.57739886646E+02  0.58218372615E+02  0.74470750000E+01 0.  1.
        -31    1    1    2    0    0 -0.13365544185E+00  0.87236348122E-01  0.62136353394E+02  0.62581233713E+02  0.74470750000E+01 0. -1.
<mgrwt>
<rscale>  0 0.14907447E+02</rscale>
<asrwt>0</asrwt>
<pdfrwt beam="1">  1        2 0.99885566E+00 0.14907447E+02</pdfrwt>
<pdfrwt beam="2">  1       -2 0.98063676E+00 0.14907447E+02</pdfrwt>
<totfact> 0.43784587E-13</totfact>
</mgrwt>
</event>
<event>
 4    1 -0.5010510E-019  0.1492779E+02  0.7818608E-02  0.1870280E+00
          2   -1    0    0  501    0  0.00000000000E+00  0.00000000000E+00  0.11875681168E+03  0.11875681171E+03  0.25500000000E-02 0. -1.
         -2   -1    0    0    0  501 -0.00000000000E+00 -0.00000000000E+00 -0.46910391796E+00  0.46911084867E+00  0.25500000000E-02 0.  1.
         31    1    1    2    0    0 -0.37736307995E+00 -0.19901425480E+00  0.61238248014E+02  0.61690874167E+02  0.74470750000E+01 0. -1.
        -31    1    1    2    0    0  0.37736307995E+00  0.19901425480E+00  0.57049459746E+02  0.57535048387E+02  0.74470750000E+01 0.  1.
<mgrwt>
<rscale>  0 0.14927786E+02</rscale>
<asrwt>0</asrwt>
<pdfrwt beam="1">  1        2 0.98584335E+00 0.14927786E+02</pdfrwt>
<pdfrwt beam="2">  1       -2 0.99629348E+00 0.14927786E+02</pdfrwt>
<totfact>-0.27497063E-13</totfact>
</mgrwt>
</event>
<event>
 4    1 -0.5010510E-019  0.1492149E+02  0.7818608E-02  0.1870474E+00
          2   -1    0    0  501    0  0.00000000000E+00  0.00000000000E+00  0.11884955102E+03  0.11884955105E+03  0.25500000000E-02 0.  1.
         -2   -1    0    0    0  501 -0.00000000000E+00 -0.00000000000E+00 -0.46834244933E+00  0.46834939131E+00  0.25500000000E-02 0. -1.
         31    1    1    2    0    0  0.33981999749E+00 -0.29712585693E+00  0.59156538502E+02  0.59625151865E+02  0.74470750000E+01 0.  1.
        -31    1    1    2    0    0 -0.33981999749E+00  0.29712585693E+00  0.59224670070E+02  0.59692748575E+02  0.74470750000E+01 0. -1.
<mgrwt>
<rscale>  0 0.14921489E+02</rscale>
<asrwt>0</asrwt>
<pdfrwt beam="1">  1        2 0.98660388E+00 0.14921489E+02</pdfrwt>
<pdfrwt beam="2">  1       -2 0.99468568E+00 0.14921489E+02</pdfrwt>
<totfact>-0.27127390E-13</totfact>
</mgrwt>
</event>
<event>
 4    1 -0.5010510E-019  0.1500480E+02  0.7818608E-02  0.1867922E+00
          2   -1    0    0  501    0  0.00000000000E+00  0.00000000000E+00  0.12006761786E+03  0.12006761789E+03  0.25500000000E-02 0. -1.
         -2   -1    0    0    0  501 -0.00000000000E+00 -0.00000000000E+00 -0.46878252551E+00  0.46878946098E+00  0.25500000000E-02 0.  1.
         31    1    1    2    0    0  0.19184773200E+00  0.81256651424E+00  0.62696101391E+02  0.63142356035E+02  0.74470750000E+01 0. -1.
        -31    1    1    2    0    0 -0.19184773200E+00 -0.81256651424E+00  0.56902733944E+02  0.57394051314E+02  0.74470750000E+01 0.  1.
<mgrwt>
<rscale>  0 0.15004802E+02</rscale>
<asrwt>0</asrwt>
<pdfrwt beam="1">  1        2 0.99667935E+00 0.15004802E+02</pdfrwt>
<pdfrwt beam="2">  1       -2 0.99565633E+00 0.15004802E+02</pdfrwt>
<totfact>-0.91185543E-14</totfact>
</mgrwt>
</event>
<event>
 4    1 -0.5010510E-019  0.1498273E+02  0.7818608E-02  0.1868596E+00
         -2   -1    0    0    0  501 -0.00000000000E+00  0.00000000000E+00  0.11983639916E+03  0.11983639919E+03  0.25500000000E-02 0. -1.
          2   -1    0    0  501    0  0.00000000000E+00 -0.00000000000E+00 -0.46830649904E+00  0.46831344155E+00  0.25500000000E-02 0.  1.
         31    1    1    2    0    0  0.57236990798E+00 -0.49357525635E+00  0.62098712842E+02  0.62548223688E+02  0.74470750000E+01 0.  1.
        -31    1    1    2    0    0 -0.57236990798E+00  0.49357525635E+00  0.57269379823E+02  0.57756488944E+02  0.74470750000E+01 0.  1.
<mgrwt>
<rscale>  0 0.14982735E+02</rscale>
<asrwt>0</asrwt>
<pdfrwt beam="2">  1        2 0.99464178E+00 0.14982735E+02</pdfrwt>
<pdfrwt beam="1">  1       -2 0.99476354E+00 0.14982735E+02</pdfrwt>
<totfact>-0.12386425E-13</totfact>
</mgrwt>
</event>
<event>
 4    1 -0.5010510E-019  0.1491410E+02  0.7818608E-02  0.1870701E+00
          2   -1    0    0  501    0  0.00000000000E+00  0.00000000000E+00  0.11884573573E+03  0.11884573576E+03  0.25500000000E-02 0. -1.
         -2   -1    0    0    0  501 -0.00000000000E+00 -0.00000000000E+00 -0.46789403613E+00  0.46790098477E+00  0.25500000000E-02 0.  1.
         31    1    1    2    0    0 -0.34777731367E-01  0.25541188374E+00  0.61483365805E+02  0.61933267647E+02  0.74470750000E+01 0. -1.
        -31    1    1    2    0    0  0.34777731367E-01 -0.25541188374E+00  0.56894475892E+02  0.57380369097E+02  0.74470750000E+01 0.  1.
<mgrwt>
<rscale>  0 0.14914104E+02</rscale>
<asrwt>0</asrwt>
<pdfrwt beam="1">  1        2 0.98656863E+00 0.14914104E+02</pdfrwt>
<pdfrwt beam="2">  1       -2 0.99373695E+00 0.14914104E+02</pdfrwt>
<totfact>-0.26074057E-13</totfact>
</mgrwt>
</event>
<event>
 4    1  0.5010510E-019  0.1490312E+02  0.7818608E-02  0.1871039E+00
         -2   -1    0    0    0  501 -0.00000000000E+00  0.00000000000E+00  0.11865300712E+03  0.11865300715E+03  0.25500000000E-02 0.  1.
          2   -1    0    0  501    0  0.00000000000E+00 -0.00000000000E+00 -0.46796370567E+00  0.46797065328E+00  0.25500000000E-02 0. -1.
         31    1    1    2    0    0  0.61941711446E-01  0.23574154174E+00  0.58405892058E+02  0.58879254105E+02  0.74470750000E+01 0. -1.
        -31    1    1    2    0    0 -0.61941711446E-01 -0.23574154174E+00  0.59779151355E+02  0.60241723694E+02  0.74470750000E+01 0.  1.
<mgrwt>
<rscale>  0 0.14903116E+02</rscale>
<asrwt>0</asrwt>
<pdfrwt beam="2">  1        2 0.99387800E+00 0.14903116E+02</pdfrwt>
<pdfrwt beam="1">  1       -2 0.98497559E+00 0.14903116E+02</pdfrwt>
<totfact> 0.53975018E-13</totfact>
</mgrwt>
</event>
<event>
 4    1  0.5010510E-019  0.1491633E+02  0.7818608E-02  0.1870632E+00
          2   -1    0    0  501    0  0.00000000000E+00  0.00000000000E+00  0.12029140951E+03  0.12029140953E+03  0.25500000000E-02 0.  1.
         -2   -1    0    0    0  501 -0.00000000000E+00 -0.00000000000E+00 -0.46240896106E+00  0.46241599212E+00  0.25500000000E-02 0. -1.
         31    1    1    2    0    0 -0.35449401372E+00 -0.18454478472E+00  0.60520467517E+02  0.60978239048E+02  0.74470750000E+01 0.  1.
        -31    1    1    2    0    0  0.35449401372E+00  0.18454478472E+00  0.59308533029E+02  0.59775586478E+02  0.74470750000E+01 0.  1.
<mgrwt>
<rscale>  0 0.14916334E+02</rscale>
<asrwt>0</asrwt>
<pdfrwt beam="1">  1        2 0.99847712E+00 0.14916334E+02</pdfrwt>
<pdfrwt beam="2">  1       -2 0.98217854E+00 0.14916334E+02</pdfrwt>
<totfact> 0.41749609E-13</totfact>
</mgrwt>
</event>
<event>
 4    1  0.5010510E-019  0.1490257E+02  0.7818608E-02  0.1871056E+00
          2   -1    0    0  501    0  0.00000000000E+00  0.00000000000E+00  0.12003221721E+03  0.12003221724E+03  0.25500000000E-02 0. -1.
         -2   -1    0    0    0  501 -0.00000000000E+00 -0.00000000000E+00 -0.46255237760E+00  0.46255940648E+00  0.25500000000E-02 0.  1.
         31    1    1    2    0    0 -0.13721903613E+00 -0.27580298619E-01  0.58106300685E+02  0.58581743701E+02  0.74470750000E+01 0.  1.
        -31    1    1    2    0    0  0.13721903613E+00  0.27580298619E-01  0.61463364150E+02  0.61913032945E+02  0.74470750000E+01 0. -1.
<mgrwt>
<rscale>  0 0.14902565E+02</rscale>
<asrwt>0</asrwt>
<pdfrwt beam="1">  1        2 0.99633512E+00 0.14902565E+02</pdfrwt>
<pdfrwt beam="2">  1       -2 0.98247387E+00 0.14902565E+02</pdfrwt>
<totfact> 0.74836515E-13</totfact>
</mgrwt>
</event>
<event>
 4    1  0.5010510E-019  0.1493943E+02  0.7818608E-02  0.1869922E+00
         -2   -1    0    0    0  501 -0.00000000000E+00  0.00000000000E+00  0.11877842912E+03  0.11877842915E+03  0.25500000000E-02 0.  1.
          2   -1    0    0  501    0  0.00000000000E+00 -0.00000000000E+00 -0.46975068480E+00  0.46975760597E+00  0.25500000000E-02 0. -1.
         31    1    1    2    0    0  0.36957911845E+00 -0.29251181547E+00  0.56440600703E+02  0.56931735312E+02  0.74470750000E+01 0. -1.
        -31    1    1    2    0    0 -0.36957911845E+00  0.29251181547E+00  0.61868077736E+02  0.62316451445E+02  0.74470750000E+01 0.  1.
<mgrwt>
<rscale>  0 0.14939433E+02</rscale>
<asrwt>0</asrwt>
<pdfrwt beam="2">  1        2 0.99766238E+00 0.14939433E+02</pdfrwt>
<pdfrwt beam="1">  1       -2 0.98602744E+00 0.14939433E+02</pdfrwt>
<totfact> 0.21856098E-13</totfact>
</mgrwt>
</event>
<event>
 4    1 -0.5010510E-019  0.1489534E+02  0.7818608E-02  0.1871279E+00
         -2   -1    0    0    0  501 -0.00000000000E+00  0.00000000000E+00  0.12002117869E+03  0.12002117871E+03  0.25500000000E-02 0. -1.
          2   -1    0    0  501    0  0.00000000000E+00 -0.00000000000E+00 -0.46214644952E+00  0.46215348457E+00  0.25500000000E-02 0.  1.
         31    1    1    2    0    0 -0.71056392932E-01  0.27954382552E-01  0.59334234265E+02  0.59799800270E+02  0.74470750000E+01 0. -1.
        -31    1    1    2    0    0  0.71056392932E-01 -0.27954382552E-01  0.60224797971E+02  0.60683531927E+02  0.74470750000E+01 0.  1.
<mgrwt>
<rscale>  0 0.14895340E+02</rscale>
<asrwt>0</asrwt>
<pdfrwt beam="2">  1        2 0.98161464E+00 0.14895340E+02</pdfrwt>
<pdfrwt beam="1">  1       -2 0.99624049E+00 0.14895340E+02</pdfrwt>
<totfact>-0.55809768E-13</totfact>
</mgrwt>
</event>
<event>
 4    1  0.5010510E-019  0.1491208E+02  0.7818608E-02  0.1870763E+00
          2   -1    0    0  501    0  0.00000000000E+00  0.00000000000E+00  0.11982874396E+03  0.11982874399E+03  0.25500000000E-02 0. -1.
         -2   -1    0    0    0  501 -0.00000000000E+00 -0.00000000000E+00 -0.46392969310E+00  0.46393670111E+00  0.25500000000E-02 0.  1.
         31    1    1    2    0    0  0.28269398749E+00 -0.23115028960E+00  0.59551549702E+02  0.60016492269E+02  0.74470750000E+01 0.  1.
        -31    1    1    2    0    0 -0.28269398749E+00  0.23115028960E+00  0.59813264564E+02  0.60276188418E+02  0.74470750000E+01 0. -1.
<mgrwt>
<rscale>  0 0.14912080E+02</rscale>
<asrwt>0</asrwt>
<pdfrwt beam="1">  1        2 0.99466405E+00 0.14912080E+02</pdfrwt>
<pdfrwt beam="2">  1       -2 0.98538157E+00 0.14912080E+02</pdfrwt>
<totfact> 0.44838290E-13</totfact>
</mgrwt>
</event>
<event>
 4    1  0.5010510E-019  0.1493018E+02  0.7818608E-02  0.1870206E+00
          2   -1    0    0  501    0  0.00000000000E+00  0.00000000000E+00  0.11984653117E+03  0.11984653119E+03  0.25500000000E-02 0. -1.
         -2   -1    0    0    0  501 -0.00000000000E+00 -0.00000000000E+00 -0.46498775775E+00  0.46499474981E+00  0.25500000000E-02 0.  1.
         31    1    1    2    0    0 -0.13958104678E+00  0.47309685965E+00  0.58407442760E+02  0.58882353887E+02  0.74470750000E+01 0.  1.
        -31    1    1    2    0    0  0.13958104678E+00 -0.47309685965E+00  0.60974100650E+02  0.61429172057E+02  0.74470750000E+01 0. -1.
<mgrwt>
<rscale>  0 0.14930183E+02</rscale>
<asrwt>0</asrwt>
<pdfrwt beam="1">  1        2 0.99481987E+00 0.14930183E+02</pdfrwt>
<pdfrwt beam="2">  1       -2 0.98762074E+00 0.14930183E+02</pdfrwt>
<totfact> 0.18862625E-13</totfact>
</mgrwt>
</event>
<event>
 4    1  0.5010510E-019  0.1493251E+02  0.7818608E-02  0.1870135E+00
          2   -1    0    0  501    0  0.00000000000E+00  0.00000000000E+00  0.12024444739E+03  0.12024444742E+03  0.25500000000E-02 0. -1.
         -2   -1    0    0    0  501 -0.00000000000E+00 -0.00000000000E+00 -0.46359331640E+00  0.46360032949E+00  0.25500000000E-02 0.  1.
         31    1    1    2    0    0  0.30111980773E+00  0.43418723500E+00  0.60558450051E+02  0.61016915608E+02  0.74470750000E+01 0.  1.
        -31    1    1    2    0    0 -0.30111980773E+00 -0.43418723500E+00  0.59222404024E+02  0.59691132140E+02  0.74470750000E+01 0.  1.
<mgrwt>
<rscale>  0 0.14932508E+02</rscale>
<asrwt>0</asrwt>
<pdfrwt beam="1">  1        2 0.99809859E+00 0.14932508E+02</pdfrwt>
<pdfrwt beam="2">  1       -2 0.98468300E+00 0.14932508E+02</pdfrwt>
<totfact> 0.27935345E-13</totfact>
</mgrwt>
</event>
<event>
 4    1 -0.5010510E-019  0.1493799E+02  0.7818608E-02  0.1869967E+00
          2   -1    0    0  501    0  0.00000000000E+00  0.00000000000E+00  0.11919711768E+03  0.11919711771E+03  0.25500000000E-02 0. -1.
         -2   -1    0    0    0  501 -0.00000000000E+00 -0.00000000000E+00 -0.46801046535E+00  0.46801741226E+00  0.25500000000E-02 0.  1.
         31    1    1    2    0    0  0.52909762360E+00  0.13919243050E-01  0.57630597773E+02  0.58112174832E+02  0.74470750000E+01 0.  1.
        -31    1    1    2    0    0 -0.52909762360E+00 -0.13919243050E-01  0.61098509440E+02  0.61552960285E+02  0.74470750000E+01 0. -1.
<mgrwt>
<rscale>  0 0.14937994E+02</rscale>
<asrwt>0</asrwt>
<pdfrwt beam="1">  1        2 0.98947506E+00 0.14937994E+02</pdfrwt>
<pdfrwt beam="2">  1       -2 0.99399475E+00 0.14937994E+02</pdfrwt>
<totfact>-0.18406366E-13</totfact>
</mgrwt>
</event>
<event>
 4    1 -0.5010510E-019  0.1496084E+02  0.7818608E-02  0.1869266E+00
          2   -1    0    0  501    0  0.00000000000E+00  0.00000000000E+00  0.11936711278E+03  0.11936711280E+03  0.25500000000E-02 0.  1.
         -2   -1    0    0    0  501 -0.00000000000E+00 -0.00000000000E+00 -0.46877452923E+00  0.46878146482E+00  0.25500000000E-02 0. -1.
         31    1    1    2    0    0  0.61036902383E-01  0.12825616204E+00  0.53913716257E+02  0.54425801802E+02  0.74470750000E+01 0. -1.
        -31    1    1    2    0    0 -0.61036902383E-01 -0.12825616204E+00  0.64984621990E+02  0.65410092466E+02  0.74470750000E+01 0.  1.
<mgrwt>
<rscale>  0 0.14960839E+02</rscale>
<asrwt>0</asrwt>
<pdfrwt beam="1">  1        2 0.99088702E+00 0.14960839E+02</pdfrwt>
<pdfrwt beam="2">  1       -2 0.99561669E+00 0.14960839E+02</pdfrwt>
<totfact>-0.16028114E-13</totfact>
</mgrwt>
</event>
<event>
 4    1 -0.5010510E-019  0.1498515E+02  0.7818608E-02  0.1868522E+00
          2   -1    0    0  501    0  0.00000000000E+00  0.00000000000E+00  0.12015603596E+03  0.12015603598E+03  0.25500000000E-02 0. -1.
         -2   -1    0    0    0  501 -0.00000000000E+00 -0.00000000000E+00 -0.46721148729E+00  0.46721844608E+00  0.25500000000E-02 0.  1.
         31    1    1    2    0    0 -0.39240361401E+00  0.58149891811E+00  0.56357438144E+02  0.56851665603E+02  0.74470750000E+01 0.  1.
        -31    1    1    2    0    0  0.39240361401E+00 -0.58149891811E+00  0.63331386326E+02  0.63771588828E+02  0.74470750000E+01 0. -1.
<mgrwt>
<rscale>  0 0.14985153E+02</rscale>
<asrwt>0</asrwt>
<pdfrwt beam="1">  1        2 0.99739746E+00 0.14985153E+02</pdfrwt>
<pdfrwt beam="2">  1       -2 0.99233539E+00 0.14985153E+02</pdfrwt>
<totfact>-0.59106115E-14</totfact>
</mgrwt>
</event>
<event>
 4    1 -0.5010510E-019  0.1491314E+02  0.7818608E-02  0.1870731E+00
          2   -1    0    0  501    0  0.00000000000E+00  0.00000000000E+00  0.11864956897E+03  0.11864956900E+03  0.25500000000E-02 0.  1.
         -2   -1    0    0    0  501 -0.00000000000E+00 -0.00000000000E+00 -0.46860681098E+00  0.46861374905E+00  0.25500000000E-02 0. -1.
         31    1    1    2    0    0  0.84465171011E-01  0.27596346660E+00  0.61017344499E+02  0.61470794252E+02  0.74470750000E+01 0.  1.
        -31    1    1    2    0    0 -0.84465171011E-01 -0.27596346660E+00  0.57163617660E+02  0.57647388494E+02  0.74470750000E+01 0.  1.
<mgrwt>
<rscale>  0 0.14913137E+02</rscale>
<asrwt>0</asrwt>
<pdfrwt beam="1">  1        2 0.98495248E+00 0.14913137E+02</pdfrwt>
<pdfrwt beam="2">  1       -2 0.99523834E+00 0.14913137E+02</pdfrwt>
<totfact>-0.34721994E-13</totfact>
</mgrwt>
</event>
<event>
 4    1  0.5010510E-019  0.1491626E+02  0.7818608E-02  0.1870635E+00
         -2   -1    0    0    0  501 -0.00000000000E+00  0.00000000000E+00  0.11842600480E+03  0.11842600482E+03  0.25500000000E-02 0. -1.
          2   -1    0    0  501    0  0.00000000000E+00 -0.00000000000E+00 -0.46968811865E+00  0.46969504075E+00  0.25500000000E-02 0.  1.
         31    1    1    2    0    0  0.39956749673E+00 -0.54218950331E-01  0.58605943547E+02  0.59078575973E+02  0.74470750000E+01 0.  1.
        -31    1    1    2    0    0 -0.39956749673E+00  0.54218950331E-01  0.59350373132E+02  0.59817123893E+02  0.74470750000E+01 0.  1.
<mgrwt>
<rscale>  0 0.14916260E+02</rscale>
<asrwt>0</asrwt>
<pdfrwt beam="2">  1        2 0.99751834E+00 0.14916260E+02</pdfrwt>
<pdfrwt beam="1">  1       -2 0.98311283E+00 0.14916260E+02</pdfrwt>
<totfact> 0.50197721E-13</totfact>
</mgrwt>
</event>
<event>
 4    1  0.5010510E-019  0.1493855E+02  0.7818608E-02  0.1869949E+00
          2   -1    0    0  501    0  0.00000000000E+00  0.00000000000E+00  0.11986207580E+03  0.11986207583E+03  0.25500000000E-02 0.  1.
         -2   -1    0    0    0  501 -0.00000000000E+00 -0.00000000000E+00 -0.46544882398E+00  0.46545580912E+00  0.25500000000E-02 0. -1.
         31    1    1    2    0    0  0.34676184639E+00 -0.41442983849E+00  0.61292319408E+02  0.61745439834E+02  0.74470750000E+01 0. -1.
        -31    1    1    2    0    0 -0.34676184639E+00  0.41442983849E+00  0.58104307566E+02  0.58582091800E+02  0.74470750000E+01 0.  1.
<mgrwt>
<rscale>  0 0.14938552E+02</rscale>
<asrwt>0</asrwt>
<pdfrwt beam="1">  1        2 0.99495222E+00 0.14938552E+02</pdfrwt>
<pdfrwt beam="2">  1       -2 0.98859672E+00 0.14938552E+02</pdfrwt>
<totfact> 0.10293123E-13</totfact>
</mgrwt>
</event>
<event>
 4    1 -0.5010510E-019  0.1493005E+02  0.7818608E-02  0.1870210E+00
         -2   -1    0    0    0  501 -0.00000000000E+00  0.00000000000E+00  0.12019593633E+03  0.12019593636E+03  0.25500000000E-02 0.  1.
          2   -1    0    0  501    0  0.00000000000E+00 -0.00000000000E+00 -0.46362802478E+00  0.46363503735E+00  0.25500000000E-02 0. -1.
         31    1    1    2    0    0 -0.26140324405E+00 -0.34227718188E+00  0.62183460755E+02  0.62629283908E+02  0.74470750000E+01 0.  1.
        -31    1    1    2    0    0  0.26140324405E+00  0.34227718188E+00  0.57548847554E+02  0.58030287490E+02  0.74470750000E+01 0.  1.
<mgrwt>
<rscale>  0 0.14930054E+02</rscale>
<asrwt>0</asrwt>
<pdfrwt beam="2">  1        2 0.98475491E+00 0.14930054E+02</pdfrwt>
<pdfrwt beam="1">  1       -2 0.99769776E+00 0.14930054E+02</pdfrwt>
<totfact>-0.23974363E-13</totfact>
</mgrwt>
</event>
<event>
 4    1  0.5010510E-019  0.1493020E+02  0.7818608E-02  0.1870206E+00
         -2   -1    0    0    0  501 -0.00000000000E+00  0.00000000000E+00  0.11871471053E+03  0.11871471056E+03  0.25500000000E-02 0.  1.
          2   -1    0    0  501    0  0.00000000000E+00 -0.00000000000E+00 -0.46942196598E+00  0.46942889200E+00  0.25500000000E-02 0. -1.
         31    1    1    2    0    0  0.44921349768E+00  0.22053800725E+00  0.58041243188E+02  0.58519187166E+02  0.74470750000E+01 0.  1.
        -31    1    1    2    0    0 -0.44921349768E+00 -0.22053800725E+00  0.60204045381E+02  0.60664952287E+02  0.74470750000E+01 0. -1.
<mgrwt>
<rscale>  0 0.14930199E+02</rscale>
<asrwt>0</asrwt>
<pdfrwt beam="2">  1        2 0.99696490E+00 0.14930199E+02</pdfrwt>
<pdfrwt beam="1">  1       -2 0.98549785E+00 0.14930199E+02</pdfrwt>
<totfact> 0.31160159E-13</totfact>
</mgrwt>
</event>
<event>
 4    1 -0.5010510E-019  0.1493362E+02  0.7818608E-02  0.1870101E+00
          2   -1    0    0  501    0  0.00000000000E+00  0.00000000000E+00  0.11919662582E+03  0.11919662585E+03  0.25500000000E-02 0. -1.
         -2   -1    0    0    0  501 -0.00000000000E+00 -0.00000000000E+00 -0.46773846756E+00  0.46774541850E+00  0.25500000000E-02 0.  1.
         31    1    1    2    0    0 -0.24111317430E+00  0.16421772822E+00  0.55699076841E+02  0.56195473039E+02  0.74470750000E+01 0.  1.
        -31    1    1    2    0    0  0.24111317430E+00 -0.16421772822E+00  0.63029810515E+02  0.63468898231E+02  0.74470750000E+01 0. -1.
<mgrwt>
<rscale>  0 0.14933622E+02</rscale>
<asrwt>0</asrwt>
<pdfrwt beam="1">  1        2 0.98946875E+00 0.14933622E+02</pdfrwt>
<pdfrwt beam="2">  1       -2 0.99341931E+00 0.14933622E+02</pdfrwt>
<totfact>-0.17427173E-13</totfact>
</mgrwt>
</event>
<event>
 4    1 -0.5010510E-019  0.1489753E+02  0.7818608E-02  0.1871212E+00
         -2   -1    0    0    0  501 -0.00000000000E+00  0.00000000000E+00  0.12015718124E+03  0.12015718127E+03  0.25500000000E-02 0. -1.
          2   -1    0    0  501    0  0.00000000000E+00 -0.00000000000E+00 -0.46175912704E+00  0.46176616800E+00  0.25500000000E-02 0.  1.
         31    1    1    2    0    0 -0.23710749110E-01  0.89781370365E-01  0.58806036102E+02  0.59275774402E+02  0.74470750000E+01 0.  1.
        -31    1    1    2    0    0  0.23710749110E-01 -0.89781370365E-01  0.60889386012E+02  0.61343173034E+02  0.74470750000E+01 0. -1.
<mgrwt>
<rscale>  0 0.14897530E+02</rscale>
<asrwt>0</asrwt>
<pdfrwt beam="2">  1        2 0.98079937E+00 0.14897530E+02</pdfrwt>
<pdfrwt beam="1">  1       -2 0.99736185E+00 0.14897530E+02</pdfrwt>
<totfact>-0.51467266E-13</totfact>
</mgrwt>
</event>
<event>
 4    1 -0.5010510E-019  0.1496145E+02  0.7818608E-02  0.1869247E+00
          2   -1    0    0  501    0  0.00000000000E+00  0.00000000000E+00  0.11984554664E+03  0.11984554667E+03  0.25500000000E-02 0. -1.
         -2   -1    0    0    0  501 -0.00000000000E+00 -0.00000000000E+00 -0.46694117165E+00  0.46694813446E+00  0.25500000000E-02 0.  1.
         31    1    1    2    0    0  0.81547852157E-01  0.28512414124E+00  0.64865734272E+02  0.65292498455E+02  0.74470750000E+01 0. -1.
        -31    1    1    2    0    0 -0.81547852157E-01 -0.28512414124E+00  0.54512871200E+02  0.55019996350E+02  0.74470750000E+01 0.  1.
<mgrwt>
<rscale>  0 0.14961449E+02</rscale>
<asrwt>0</asrwt>
<pdfrwt beam="1">  1        2 0.99482789E+00 0.14961449E+02</pdfrwt>
<pdfrwt beam="2">  1       -2 0.99175354E+00 0.14961449E+02</pdfrwt>
<totfact>-0.72063121E-14</totfact>
</mgrwt>
</event>
<event>
 4    1 -0.5010510E-019  0.1492822E+02  0.7818608E-02  0.1870267E+00
          2   -1    0    0  501    0  0.00000000000E+00  0.00000000000E+00  0.11868359130E+03  0.11868359132E+03  0.25500000000E-02 0. -1.
         -2   -1    0    0    0  501 -0.00000000000E+00 -0.00000000000E+00 -0.46942057192E+00  0.46942749796E+00  0.25500000000E-02 0.  1.
         31    1    1    2    0    0 -0.26714493963E-01  0.22371479927E+00  0.62705469690E+02  0.63146540816E+02  0.74470750000E+01 0. -1.
        -31    1    1    2    0    0  0.26714493963E-01 -0.22371479927E+00  0.55508701035E+02  0.56006478006E+02  0.74470750000E+01 0.  1.
<mgrwt>
<rscale>  0 0.14928219E+02</rscale>
<asrwt>0</asrwt>
<pdfrwt beam="1">  1        2 0.98524053E+00 0.14928219E+02</pdfrwt>
<pdfrwt beam="2">  1       -2 0.99696092E+00 0.14928219E+02</pdfrwt>
<totfact>-0.26970996E-13</totfact>
</mgrwt>
</event>
<event>
 4    1  0.5010510E-019  0.1489809E+02  0.7818608E-02  0.1871194E+00
          2   -1    0    0  501    0  0.00000000000E+00  0.00000000000E+00  0.11985355497E+03  0.11985355500E+03  0.25500000000E-02 0.  1.
         -2   -1    0    0    0  501 -0.00000000000E+00 -0.00000000000E+00 -0.46296387448E+00  0.46297089711E+00  0.25500000000E-02 0. -1.
         31    1    1    2    0    0 -0.62476141516E-01  0.15954982298E+00  0.59713008506E+02  0.60175839590E+02  0.74470750000E+01 0.  1.
        -31    1    1    2    0    0  0.62476141516E-01 -0.15954982298E+00  0.59677582590E+02  0.60140686306E+02  0.74470750000E+01 0.  1.
<mgrwt>
<rscale>  0 0.14898093E+02</rscale>
<asrwt>0</asrwt>
<pdfrwt beam="1">  1        2 0.99486122E+00 0.14898093E+02</pdfrwt>
<pdfrwt beam="2">  1       -2 0.98333889E+00 0.14898093E+02</pdfrwt>
<totfact> 0.74859552E-13</totfact>
</mgrwt>
</event>
<event>
 4    1 -0.5010510E-019  0.1493503E+02  0.7818608E-02  0.1870058E+00
         -2   -1    0    0    0  501 -0.00000000000E+00  0.00000000000E+00  0.11972179695E+03  0.11972179698E+03  0.25500000000E-02 0.  1.
          2   -1    0    0  501    0  0.00000000000E+00 -0.00000000000E+00 -0.46577433175E+00  0.46578131201E+00  0.25500000000E-02 0. -1.
         31    1    1    2    0    0  0.82149557380E-01  0.41560812853E+00  0.62477236195E+02  0.62920930121E+02  0.74470750000E+01 0. -1.
        -31    1    1    2    0    0 -0.82149557380E-01 -0.41560812853E+00  0.56778786423E+02  0.57266648168E+02  0.74470750000E+01 0. -1.
<mgrwt>
<rscale>  0 0.14935027E+02</rscale>
<asrwt>0</asrwt>
<pdfrwt beam="2">  1        2 0.98928091E+00 0.14935027E+02</pdfrwt>
<pdfrwt beam="1">  1       -2 0.99379499E+00 0.14935027E+02</pdfrwt>
<totfact>-0.18501570E-13</totfact>
</mgrwt>
</event>
<event>
 4    1  0.5010510E-019  0.1491057E+02  0.7818608E-02  0.1870810E+00
         -2   -1    0    0    0  501 -0.00000000000E+00  0.00000000000E+00  0.11902939884E+03  0.11902939887E+03  0.25500000000E-02 0. -1.
          2   -1    0    0  501    0  0.00000000000E+00 -0.00000000000E+00 -0.46695074224E+00  0.46695770492E+00  0.25500000000E-02 0.  1.
         31    1    1    2    0    0 -0.22773121413E-01  0.78374642792E-01  0.56555257444E+02  0.57043516124E+02  0.74470750000E+01 0.  1.
        -31    1    1    2    0    0  0.22773121413E-01 -0.78374642792E-01  0.62007190654E+02  0.62452840448E+02  0.74470750000E+01 0. -1.
<mgrwt>
<rscale>  0 0.14910571E+02</rscale>
<asrwt>0</asrwt>
<pdfrwt beam="2">  1        2 0.99174739E+00 0.14910571E+02</pdfrwt>
<pdfrwt beam="1">  1       -2 0.98807948E+00 0.14910571E+02</pdfrwt>
<totfact> 0.18677254E-13</totfact>
</mgrwt>
</event>
<event>
 4    1 -0.5010510E-019  0.1494364E+02  0.7818608E-02  0.1869793E+00
         -2   -1    0    0    0  501 -0.00000000000E+00  0.00000000000E+00  0.11961833229E+03  0.11961833231E+03  0.25500000000E-02 0. -1.
          2   -1    0    0  501    0  0.00000000000E+00 -0.00000000000E+00 -0.46671517321E+00  0.46672213940E+00  0.25500000000E-02 0.  1.
         31    1    1    2    0    0 -0.52610625934E+00  0.27015563885E+00  0.60695439577E+02  0.61153455204E+02  0.74470750000E+01 0. -1.
        -31    1    1    2    0    0  0.52610625934E+00 -0.27015563885E+00  0.58456177536E+02  0.58931599249E+02  0.74470750000E+01 0. -1.
<mgrwt>
<rscale>  0 0.14943642E+02</rscale>
<asrwt>0</asrwt>
<pdfrwt beam="2">  1        2 0.99126809E+00 0.14943642E+02</pdfrwt>
<pdfrwt beam="1">  1       -2 0.99294725E+00 0.14943642E+02</pdfrwt>
<totfact>-0.13747358E-13</totfact>
</mgrwt>
</event>
<event>
 4    1 -0.5010510E-019  0.1493990E+02  0.7818608E-02  0.1869908E+00
          2   -1    0    0  501    0  0.00000000000E+00  0.00000000000E+00  0.11921151146E+03  0.11921151148E+03  0.25500000000E-02 0.  1.
         -2   -1    0    0    0  501 -0.00000000000E+00 -0.00000000000E+00 -0.46807334528E+00  0.46808029126E+00  0.25500000000E-02 0. -1.
         31    1    1    2    0    0  0.35002449592E+00 -0.21844352647E+00  0.62684208949E+02  0.63126374935E+02  0.74470750000E+01 0.  1.
        -31    1    1    2    0    0 -0.35002449592E+00  0.21844352647E+00  0.56059229161E+02  0.56553216840E+02  0.74470750000E+01 0.  1.
<mgrwt>
<rscale>  0 0.14939899E+02</rscale>
<asrwt>0</asrwt>
<pdfrwt beam="1">  1        2 0.98959460E+00 0.14939899E+02</pdfrwt>
<pdfrwt beam="2">  1       -2 0.99412824E+00 0.14939899E+02</pdfrwt>
<totfact>-0.18328935E-13</totfact>
</mgrwt>
</event>
<event>
 4    1  0.5010510E-019  0.1491067E+02  0.7818608E-02  0.1870807E+00
          2   -1    0    0  501    0  0.00000000000E+00  0.00000000000E+00  0.11973401492E+03  0.11973401495E+03  0.25500000000E-02 0. -1.
         -2   -1    0    0    0  501 -0.00000000000E+00 -0.00000000000E+00 -0.46420895005E+00  0.46421595384E+00  0.25500000000E-02 0.  1.
         31    1    1    2    0    0  0.34462143686E+00 -0.62544437502E-01  0.59469282961E+02  0.59934774694E+02  0.74470750000E+01 0.  1.
        -31    1    1    2    0    0 -0.34462143686E+00  0.62544437502E-01  0.59800523010E+02  0.60263456208E+02  0.74470750000E+01 0. -1.
<mgrwt>
<rscale>  0 0.14910671E+02</rscale>
<asrwt>0</asrwt>
<pdfrwt beam="1">  1        2 0.99388307E+00 0.14910671E+02</pdfrwt>
<pdfrwt beam="2">  1       -2 0.98596940E+00 0.14910671E+02</pdfrwt>
<totfact> 0.39821587E-13</totfact>
</mgrwt>
</event>
<event>
 4    1  0.5010510E-019  0.1491198E+02  0.7818608E-02  0.1870766E+00
         -2   -1    0    0    0  501 -0.00000000000E+00  0.00000000000E+00  0.11893054566E+03  0.11893054568E+03  0.25500000000E-02 0.  1.
          2   -1    0    0  501    0  0.00000000000E+00 -0.00000000000E+00 -0.46742739114E+00  0.46743434671E+00  0.25500000000E-02 0. -1.
         31    1    1    2    0    0  0.16584029179E+00 -0.32355654395E+00  0.59020679236E+02  0.59489761265E+02  0.74470750000E+01 0. -1.
        -31    1    1    2    0    0 -0.16584029179E+00  0.32355654395E+00  0.59442439030E+02  0.59908218766E+02  0.74470750000E+01 0. -1.
<mgrwt>
<rscale>  0 0.14911983E+02</rscale>
<asrwt>0</asrwt>
<pdfrwt beam="2">  1        2 0.99275253E+00 0.14911983E+02</pdfrwt>
<pdfrwt beam="1">  1       -2 0.98726604E+00 0.14911983E+02</pdfrwt>
<totfact> 0.26329305E-13</totfact>
</mgrwt>
</event>
<event>
 4    1  0.5010510E-019  0.1496417E+02  0.7818608E-02  0.1869164E+00
         -2   -1    0    0    0  501 -0.00000000000E+00  0.00000000000E+00  0.11910675763E+03  0.11910675766E+03  0.25500000000E-02 0.  1.
          2   -1    0    0  501    0  0.00000000000E+00 -0.00000000000E+00 -0.47000813333E+00  0.47001505071E+00  0.25500000000E-02 0. -1.
         31    1    1    2    0    0  0.93416290331E-01 -0.71172092528E+00  0.60003947909E+02  0.60468570051E+02  0.74470750000E+01 0. -1.
        -31    1    1    2    0    0 -0.93416290331E-01  0.71172092528E+00  0.58632801588E+02  0.59108202658E+02  0.74470750000E+01 0. -1.
<mgrwt>
<rscale>  0 0.14964165E+02</rscale>
<asrwt>0</asrwt>
<pdfrwt beam="2">  1        2 0.99821784E+00 0.14964165E+02</pdfrwt>
<pdfrwt beam="1">  1       -2 0.98874442E+00 0.14964165E+02</pdfrwt>
<totfact> 0.45718788E-14</totfact>
</mgrwt>
</event>
<event>
 4    1 -0.5010510E-019  0.1491804E+02  0.7818608E-02  0.1870580E+00
         -2   -1    0    0    0  501 -0.00000000000E+00  0.00000000000E+00  0.12005963743E+03  0.12005963746E+03  0.25500000000E-02 0. -1.
          2   -1    0    0  501    0  0.00000000000E+00 -0.00000000000E+00 -0.46340765836E+00  0.46341467427E+00  0.25500000000E-02 0.  1.
         31    1    1    2    0    0 -0.10883763447E+00 -0.36423390173E+00  0.61277740454E+02  0.61729773312E+02  0.74470750000E+01 0.  1.
        -31    1    1    2    0    0  0.10883763447E+00  0.36423390173E+00  0.58318489318E+02  0.58793278820E+02  0.74470750000E+01 0. -1.
<mgrwt>
<rscale>  0 0.14918040E+02</rscale>
<asrwt>0</asrwt>
<pdfrwt beam="2">  1        2 0.98428436E+00 0.14918040E+02</pdfrwt>
<pdfrwt beam="1">  1       -2 0.99656892E+00 0.14918040E+02</pdfrwt>
<totfact>-0.33927039E-13</totfact>
</mgrwt>
</event>
<event>
 4    1 -0.5010510E-019  0.1492818E+02  0.7818608E-02  0.1870268E+00
          2   -1    0    0  501    0  0.00000000000E+00  0.00000000000E+00  0.11907499336E+03  0.11907499339E+03  0.25500000000E-02 0. -1.
         -2   -1    0    0    0  501 -0.00000000000E+00 -0.00000000000E+00 -0.46787480801E+00  0.46788175693E+00  0.25500000000E-02 0.  1.
         31    1    1    2    0    0  0.99316490960E-01 -0.15529533924E+00  0.55550096069E+02  0.56047355689E+02  0.74470750000E+01 0.  1.
        -31    1    1    2    0    0 -0.99316490960E-01  0.15529533924E+00  0.63057022487E+02  0.63495519459E+02  0.74470750000E+01 0. -1.
<mgrwt>
<rscale>  0 0.14928176E+02</rscale>
<asrwt>0</asrwt>
<pdfrwt beam="1">  1        2 0.98846413E+00 0.14928176E+02</pdfrwt>
<pdfrwt beam="2">  1       -2 0.99370377E+00 0.14928176E+02</pdfrwt>
<totfact>-0.20133640E-13</totfact>
</mgrwt>
</event>
<event>
 4    1 -0.5010510E-019  0.1497105E+02  0.7818608E-02  0.1868953E+00
         -2   -1    0    0    0  501 -0.00000000000E+00  0.00000000000E+00  0.11992403686E+03  0.11992403689E+03  0.25500000000E-02 0.  1.
          2   -1    0    0  501    0  0.00000000000E+00 -0.00000000000E+00 -0.46723454247E+00  0.46724150092E+00  0.25500000000E-02 0. -1.
         31    1    1    2    0    0  0.70662470080E+00  0.22789619746E+00  0.60945098987E+02  0.61402893024E+02  0.74470750000E+01 0. -1.
        -31    1    1    2    0    0 -0.70662470080E+00 -0.22789619746E+00  0.58511703333E+02  0.58988385366E+02  0.74470750000E+01 0.  1.
<mgrwt>
<rscale>  0 0.14971048E+02</rscale>
<asrwt>0</asrwt>
<pdfrwt beam="2">  1        2 0.99237673E+00 0.14971048E+02</pdfrwt>
<pdfrwt beam="1">  1       -2 0.99547932E+00 0.14971048E+02</pdfrwt>
<totfact>-0.14439267E-13</totfact>
</mgrwt>
</event>
<event>
 4    1  0.5010510E-019  0.1492702E+02  0.7818608E-02  0.1870304E+00
         -2   -1    0    0    0  501 -0.00000000000E+00  0.00000000000E+00  0.11869520292E+03  0.11869520295E+03  0.25500000000E-02 0.  1.
          2   -1    0    0  501    0  0.00000000000E+00 -0.00000000000E+00 -0.46929933908E+00  0.46930626691E+00  0.25500000000E-02 0. -1.
         31    1    1    2    0    0  0.27135648035E+00  0.41268056685E+00  0.58844708182E+02  0.59316123834E+02  0.74470750000E+01 0. -1.
        -31    1    1    2    0    0 -0.27135648035E+00 -0.41268056685E+00  0.59381195398E+02  0.59848385380E+02  0.74470750000E+01 0. -1.
<mgrwt>
<rscale>  0 0.14927022E+02</rscale>
<asrwt>0</asrwt>
<pdfrwt beam="2">  1        2 0.99670485E+00 0.14927022E+02</pdfrwt>
<pdfrwt beam="1">  1       -2 0.98533554E+00 0.14927022E+02</pdfrwt>
<totfact> 0.34545288E-13</totfact>
</mgrwt>
</event>
<event>
 4    1  0.5010510E-019  0.1490705E+02  0.7818608E-02  0.1870918E+00
         -2   -1    0    0    0  501 -0.00000000000E+00  0.00000000000E+00  0.11806889451E+03  0.11806889454E+03  0.25500000000E-02 0.  1.
          2   -1    0    0  501    0  0.00000000000E+00 -0.00000000000E+00 -0.47052688774E+00  0.47053379750E+00  0.25500000000E-02 0. -1.
         31    1    1    2    0    0 -0.30460846068E+00  0.24370676107E-01  0.59211943995E+02  0.59679197531E+02  0.74470750000E+01 0.  1.
        -31    1    1    2    0    0  0.30460846068E+00 -0.24370676107E-01  0.58386423628E+02  0.58860230804E+02  0.74470750000E+01 0.  1.
<mgrwt>
<rscale>  0 0.14907045E+02</rscale>
<asrwt>0</asrwt>
<pdfrwt beam="2">  1        2 0.99928067E+00 0.14907045E+02</pdfrwt>
<pdfrwt beam="1">  1       -2 0.98016693E+00 0.14907045E+02</pdfrwt>
<totfact> 0.31304182E-13</totfact>
</mgrwt>
</event>
<event>
 4    1 -0.5010510E-019  0.1495276E+02  0.7818608E-02  0.1869513E+00
          2   -1    0    0  501    0  0.00000000000E+00  0.00000000000E+00  0.11925318598E+03  0.11925318601E+03  0.25500000000E-02 0. -1.
         -2   -1    0    0    0  501 -0.00000000000E+00 -0.00000000000E+00 -0.46871567210E+00  0.46872260855E+00  0.25500000000E-02 0.  1.
         31    1    1    2    0    0  0.35934971539E+00 -0.49686769485E+00  0.57409579415E+02  0.57893823025E+02  0.74470750000E+01 0.  1.
        -31    1    1    2    0    0 -0.35934971539E+00  0.49686769485E+00  0.61374890896E+02  0.61828085595E+02  0.74470750000E+01 0. -1.
<mgrwt>
<rscale>  0 0.14952759E+02</rscale>
<asrwt>0</asrwt>
<pdfrwt beam="1">  1        2 0.98994451E+00 0.14952759E+02</pdfrwt>
<pdfrwt beam="2">  1       -2 0.99548846E+00 0.14952759E+02</pdfrwt>
<totfact>-0.17589806E-13</totfact>
</mgrwt>
</event>
<event>
 4    1  0.5010510E-019  0.1492301E+02  0.7818608E-02  0.1870427E+00
         -2   -1    0    0    0  501 -0.00000000000E+00  0.00000000000E+00  0.11842401083E+03  0.11842401086E+03  0.25500000000E-02 0. -1.
          2   -1    0    0  501    0  0.00000000000E+00 -0.00000000000E+00 -0.47012115376E+00  0.47012806948E+00  0.25500000000E-02 0.  1.
         31    1    1    2    0    0 -0.21615249297E+00  0.37847780140E+00  0.57713402130E+02  0.58193519217E+02  0.74470750000E+01 0.  1.
        -31    1    1    2    0    0  0.21615249297E+00 -0.37847780140E+00  0.60240487545E+02  0.60700619710E+02  0.74470750000E+01 0. -1.
<mgrwt>
<rscale>  0 0.14923008E+02</rscale>
<asrwt>0</asrwt>
<pdfrwt beam="2">  1        2 0.99843430E+00 0.14923008E+02</pdfrwt>
<pdfrwt beam="1">  1       -2 0.98309993E+00 0.14923008E+02</pdfrwt>
<totfact> 0.35143771E-13</totfact>
</mgrwt>
</event>
<event>
 4    1 -0.5010510E-019  0.1490227E+02  0.7818608E-02  0.1871066E+00
          2   -1    0    0  501    0  0.00000000000E+00  0.00000000000E+00  0.11825870142E+03  0.11825870145E+03  0.25500000000E-02 0. -1.
         -2   -1    0    0    0  501 -0.00000000000E+00 -0.00000000000E+00 -0.46947068114E+00  0.46947760644E+00  0.25500000000E-02 0.  1.
         31    1    1    2    0    0  0.23152180902E+00  0.42111267588E-01  0.59463809767E+02  0.59928782515E+02  0.74470750000E+01 0. -1.
        -31    1    1    2    0    0 -0.23152180902E+00 -0.42111267588E-01  0.58325420975E+02  0.58799396542E+02  0.74470750000E+01 0.  1.
<mgrwt>
<rscale>  0 0.14902269E+02</rscale>
<asrwt>0</asrwt>
<pdfrwt beam="1">  1        2 0.98172765E+00 0.14902269E+02</pdfrwt>
<pdfrwt beam="2">  1       -2 0.99705281E+00 0.14902269E+02</pdfrwt>
<totfact>-0.47532185E-13</totfact>
</mgrwt>
</event>
<event>
 4    1 -0.5010510E-019  0.1491007E+02  0.7818608E-02  0.1870825E+00
          2   -1    0    0  501    0  0.00000000000E+00  0.00000000000E+00  0.11847752163E+03  0.11847752165E+03  0.25500000000E-02 0.  1.
         -2   -1    0    0    0  501 -0.00000000000E+00 -0.00000000000E+00 -0.46909455352E+00  0.46910148438E+00  0.25500000000E-02 0. -1.
         31    1    1    2    0    0 -0.12471785842E+00  0.72077611155E-02  0.56443398654E+02  0.56932695213E+02  0.74470750000E+01 0. -1.
        -31    1    1    2    0    0  0.12471785842E+00 -0.72077611155E-02  0.61565028419E+02  0.62013927926E+02  0.74470750000E+01 0.  1.
<mgrwt>
<rscale>  0 0.14910074E+02</rscale>
<asrwt>0</asrwt>
<pdfrwt beam="1">  1        2 0.98353390E+00 0.14910074E+02</pdfrwt>
<pdfrwt beam="2">  1       -2 0.99626443E+00 0.14910074E+02</pdfrwt>
<totfact>-0.40235133E-13</totfact>
</mgrwt>
</event>
<event>
 4    1  0.5010510E-019  0.1493197E+02  0.7818608E-02  0.1870152E+00
          2   -1    0    0  501    0  0.00000000000E+00  0.00000000000E+00  0.12036069531E+03  0.12036069534E+03  0.25500000000E-02 0.  1.
         -2   -1    0    0    0  501 -0.00000000000E+00 -0.00000000000E+00 -0.46311210077E+00  0.46311912116E+00  0.25500000000E-02 0. -1.
         31    1    1    2    0    0 -0.24244601619E+00  0.14499633218E+00  0.63587233682E+02  0.64022457134E+02  0.74470750000E+01 0.  1.
        -31    1    1    2    0    0  0.24244601619E+00 -0.14499633218E+00  0.56310349527E+02  0.56801357324E+02  0.74470750000E+01 0. -1.
<mgrwt>
<rscale>  0 0.14931968E+02</rscale>
<asrwt>0</asrwt>
<pdfrwt beam="1">  1        2 0.99905583E+00 0.14931968E+02</pdfrwt>
<pdfrwt beam="2">  1       -2 0.98366847E+00 0.14931968E+02</pdfrwt>
<totfact> 0.19929216E-13</totfact>
</mgrwt>
</event>
<event>
 4    1  0.5010510E-019  0.1491196E+02  0.7818608E-02  0.1870767E+00
         -2   -1    0    0    0  501 -0.00000000000E+00  0.00000000000E+00  0.11812935892E+03  0.11812935895E+03  0.25500000000E-02 0. -1.
          2   -1    0    0  501    0  0.00000000000E+00 -0.00000000000E+00 -0.47059649336E+00  0.47060340209E+00  0.25500000000E-02 0.  1.
         31    1    1    2    0    0 -0.20122969261E+00  0.55595734707E-01  0.56454498505E+02  0.56943945348E+02  0.74470750000E+01 0.  1.
        -31    1    1    2    0    0  0.20122969261E+00 -0.55595734707E-01  0.61204263924E+02  0.61656017004E+02  0.74470750000E+01 0. -1.
<mgrwt>
<rscale>  0 0.14911965E+02</rscale>
<asrwt>0</asrwt>
<pdfrwt beam="2">  1        2 0.99942993E+00 0.14911965E+02</pdfrwt>
<pdfrwt beam="1">  1       -2 0.98066747E+00 0.14911965E+02</pdfrwt>
<totfact> 0.23117842E-13</totfact>
</mgrwt>
</event>
<event>
 4    1  0.5010510E-019  0.1491968E+02  0.7818608E-02  0.1870530E+00
         -2   -1    0    0    0  501 -0.00000000000E+00  0.00000000000E+00  0.11874385405E+03  0.11874385408E+03  0.25500000000E-02 0.  1.
          2   -1    0    0  501    0  0.00000000000E+00 -0.00000000000E+00 -0.46864547268E+00  0.46865241017E+00  0.25500000000E-02 0. -1.
         31    1    1    2    0    0  0.38043351235E+00  0.20182131199E+00  0.58584182213E+02  0.59057182401E+02  0.74470750000E+01 0. -1.
        -31    1    1    2    0    0 -0.38043351235E+00 -0.20182131199E+00  0.59691026362E+02  0.60155324085E+02  0.74470750000E+01 0.  1.
<mgrwt>
<rscale>  0 0.14919676E+02</rscale>
<asrwt>0</asrwt>
<pdfrwt beam="2">  1        2 0.99532324E+00 0.14919676E+02</pdfrwt>
<pdfrwt beam="1">  1       -2 0.98573241E+00 0.14919676E+02</pdfrwt>
<totfact> 0.37578792E-13</totfact>
</mgrwt>
</event>
<event>
 4    1 -0.5010510E-019  0.1493209E+02  0.7818608E-02  0.1870148E+00
         -2   -1    0    0    0  501 -0.00000000000E+00  0.00000000000E+00  0.11997500541E+03  0.11997500544E+03  0.25500000000E-02 0. -1.
          2   -1    0    0  501    0  0.00000000000E+00 -0.00000000000E+00 -0.46460875911E+00  0.46461575688E+00  0.25500000000E-02 0.  1.
         31    1    1    2    0    0 -0.78303597943E-01  0.52139367605E+00  0.59187571295E+02  0.59656562964E+02  0.74470750000E+01 0. -1.
        -31    1    1    2    0    0  0.78303597943E-01 -0.52139367605E+00  0.60322825356E+02  0.60783058231E+02  0.74470750000E+01 0. -1.
<mgrwt>
<rscale>  0 0.14932094E+02</rscale>
<asrwt>0</asrwt>
<pdfrwt beam="2">  1        2 0.98682296E+00 0.14932094E+02</pdfrwt>
<pdfrwt beam="1">  1       -2 0.99587906E+00 0.14932094E+02</pdfrwt>
<totfact>-0.24898796E-13</totfact>
</mgrwt>
</event>
<event>
 4    1 -0.5010510E-019  0.1493546E+02  0.7818608E-02  0.1870044E+00
          2   -1    0    0  501    0  0.00000000000E+00  0.00000000000E+00  0.11859467650E+03  0.11859467653E+03  0.25500000000E-02 0.  1.
         -2   -1    0    0    0  501 -0.00000000000E+00 -0.00000000000E+00 -0.47022814518E+00  0.47023505933E+00  0.25500000000E-02 0. -1.
         31    1    1    2    0    0 -0.49580457496E+00  0.23894299566E+00  0.58491461561E+02  0.58966201485E+02  0.74470750000E+01 0. -1.
        -31    1    1    2    0    0  0.49580457496E+00 -0.23894299566E+00  0.59632986798E+02  0.60098710106E+02  0.74470750000E+01 0.  1.
<mgrwt>
<rscale>  0 0.14935457E+02</rscale>
<asrwt>0</asrwt>
<pdfrwt beam="1">  1        2 0.98451199E+00 0.14935457E+02</pdfrwt>
<pdfrwt beam="2">  1       -2 0.99866630E+00 0.14935457E+02</pdfrwt>
<totfact>-0.15843933E-13</totfact>
</mgrwt>
</event>
<event>
 4    1 -0.5010510E-019  0.1498643E+02  0.7818608E-02  0.1868483E+00
         -2   -1    0    0    0  501 -0.00000000000E+00  0.00000000000E+00  0.12031413980E+03  0.12031413983E+03  0.25500000000E-02 0.  1.
          2   -1    0    0  501    0  0.00000000000E+00 -0.00000000000E+00 -0.46667689171E+00  0.46668385847E+00  0.25500000000E-02 0. -1.
         31    1    1    2    0    0 -0.15237090864E+00  0.47122578692E+00  0.54553191009E+02  0.55061373448E+02  0.74470750000E+01 0. -1.
        -31    1    1    2    0    0  0.15237090864E+00 -0.47122578692E+00  0.65294271904E+02  0.65719450242E+02  0.74470750000E+01 0.  1.
<mgrwt>
<rscale>  0 0.14986427E+02</rscale>
<asrwt>0</asrwt>
<pdfrwt beam="2">  1        2 0.99120938E+00 0.14986427E+02</pdfrwt>
<pdfrwt beam="1">  1       -2 0.99870036E+00 0.14986427E+02</pdfrwt>
<totfact>-0.66237352E-14</totfact>
</mgrwt>
</event>
<event>
 4    1 -0.5010510E-019  0.1493038E+02  0.7818608E-02  0.1870200E+00
         -2   -1    0    0    0  501 -0.00000000000E+00  0.00000000000E+00  0.11967366457E+03  0.11967366460E+03  0.25500000000E-02 0. -1.
          2   -1    0    0  501    0  0.00000000000E+00 -0.00000000000E+00 -0.46567177727E+00  0.46567875907E+00  0.25500000000E-02 0.  1.
         31    1    1    2    0    0  0.51912866970E-02  0.23823333017E+00  0.55887173585E+02  0.56381662617E+02  0.74470750000E+01 0.  1.
        -31    1    1    2    0    0 -0.51912866970E-02 -0.23823333017E+00  0.63320819209E+02  0.63757680741E+02  0.74470750000E+01 0. -1.
<mgrwt>
<rscale>  0 0.14930381E+02</rscale>
<asrwt>0</asrwt>
<pdfrwt beam="2">  1        2 0.98906240E+00 0.14930381E+02</pdfrwt>
<pdfrwt beam="1">  1       -2 0.99339615E+00 0.14930381E+02</pdfrwt>
<totfact>-0.18149040E-13</totfact>
</mgrwt>
</event>
<event>
 4    1 -0.5010510E-019  0.1495488E+02  0.7818608E-02  0.1869448E+00
          2   -1    0    0  501    0  0.00000000000E+00  0.00000000000E+00  0.11896160692E+03  0.11896160695E+03  0.25500000000E-02 0. -1.
         -2   -1    0    0    0  501 -0.00000000000E+00 -0.00000000000E+00 -0.46999779578E+00  0.47000471332E+00  0.25500000000E-02 0.  1.
         31    1    1    2    0    0 -0.16272410103E+00  0.42492736385E-01  0.54040116223E+02  0.54551089561E+02  0.74470750000E+01 0.  1.
        -31    1    1    2    0    0  0.16272410103E+00 -0.42492736385E-01  0.64451492906E+02  0.64880522105E+02  0.74470750000E+01 0. -1.
<mgrwt>
<rscale>  0 0.14954880E+02</rscale>
<asrwt>0</asrwt>
<pdfrwt beam="1">  1        2 0.98754413E+00 0.14954880E+02</pdfrwt>
<pdfrwt beam="2">  1       -2 0.99819118E+00 0.14954880E+02</pdfrwt>
<totfact>-0.12973442E-13</totfact>
</mgrwt>
</event>
<event>
 4    1 -0.5010510E-019  0.1495244E+02  0.7818608E-02  0.1869523E+00
         -2   -1    0    0    0  501 -0.00000000000E+00  0.00000000000E+00  0.12014801476E+03  0.12014801479E+03  0.25500000000E-02 0. -1.
          2   -1    0    0  501    0  0.00000000000E+00 -0.00000000000E+00 -0.46520462370E+00  0.46521161251E+00  0.25500000000E-02 0.  1.
         31    1    1    2    0    0  0.29603008666E+00 -0.35517750911E+00  0.56048245697E+02  0.56542714443E+02  0.74470750000E+01 0.  1.
        -31    1    1    2    0    0 -0.29603008666E+00  0.35517750911E+00  0.63634564441E+02  0.64070511958E+02  0.74470750000E+01 0. -1.
<mgrwt>
<rscale>  0 0.14952436E+02</rscale>
<asrwt>0</asrwt>
<pdfrwt beam="2">  1        2 0.98808915E+00 0.14952436E+02</pdfrwt>
<pdfrwt beam="1">  1       -2 0.99731454E+00 0.14952436E+02</pdfrwt>
<totfact>-0.16400475E-13</totfact>
</mgrwt>
</event>
<event>
 4    1 -0.5010510E-019  0.1490536E+02  0.7818608E-02  0.1870970E+00
         -2   -1    0    0    0  501 -0.00000000000E+00  0.00000000000E+00  0.12016825830E+03  0.12016825833E+03  0.25500000000E-02 0.  1.
          2   -1    0    0  501    0  0.00000000000E+00 -0.00000000000E+00 -0.46220200261E+00  0.46220903682E+00  0.25500000000E-02 0. -1.
         31    1    1    2    0    0  0.11835362211E+00  0.62975480837E-01  0.57781196365E+02  0.58259278685E+02  0.74470750000E+01 0. -1.
        -31    1    1    2    0    0 -0.11835362211E+00 -0.62975480837E-01  0.61924859933E+02  0.62371188679E+02  0.74470750000E+01 0.  1.
<mgrwt>
<rscale>  0 0.14905360E+02</rscale>
<asrwt>0</asrwt>
<pdfrwt beam="2">  1        2 0.98173679E+00 0.14905360E+02</pdfrwt>
<pdfrwt beam="1">  1       -2 0.99745710E+00 0.14905360E+02</pdfrwt>
<totfact>-0.42839962E-13</totfact>
</mgrwt>
</event>
<event>
 4    1 -0.5010510E-019  0.1495231E+02  0.7818608E-02  0.1869527E+00
         -2   -1    0    0    0  501 -0.00000000000E+00  0.00000000000E+00  0.11985313500E+03  0.11985313503E+03  0.25500000000E-02 0.  1.
          2   -1    0    0  501    0  0.00000000000E+00 -0.00000000000E+00 -0.46634137224E+00  0.46634834401E+00  0.25500000000E-02 0. -1.
         31    1    1    2    0    0 -0.44550610717E+00 -0.91542825424E-01  0.63528263202E+02  0.63964881046E+02  0.74470750000E+01 0.  1.
        -31    1    1    2    0    0  0.44550610717E+00  0.91542825424E-01  0.55858530425E+02  0.56354602324E+02  0.74470750000E+01 0. -1.
<mgrwt>
<rscale>  0 0.14952310E+02</rscale>
<asrwt>0</asrwt>
<pdfrwt beam="2">  1        2 0.99048480E+00 0.14952310E+02</pdfrwt>
<pdfrwt beam="1">  1       -2 0.99488567E+00 0.14952310E+02</pdfrwt>
<totfact>-0.17109557E-13</totfact>
</mgrwt>
</event>
<event>
 4    1  0.5010510E-019  0.1489818E+02  0.7818608E-02  0.1871192E+00
          2   -1    0    0  501    0  0.00000000000E+00  0.00000000000E+00  0.12028076713E+03  0.12028076716E+03  0.25500000000E-02 0.  1.
         -2   -1    0    0    0  501 -0.00000000000E+00 -0.00000000000E+00 -0.46132473560E+00  0.46133178319E+00  0.25500000000E-02 0. -1.
         31    1    1    2    0    0 -0.16974143881E+00 -0.34233927654E-01  0.59935381405E+02  0.60396513594E+02  0.74470750000E+01 0. -1.
        -31    1    1    2    0    0  0.16974143881E+00  0.34233927654E-01  0.59884060993E+02  0.60345585350E+02  0.74470750000E+01 0. -1.
<mgrwt>
<rscale>  0 0.14898177E+02</rscale>
<asrwt>0</asrwt>
<pdfrwt beam="1">  1        2 0.99838015E+00 0.14898177E+02</pdfrwt>
<pdfrwt beam="2">  1       -2 0.97988410E+00 0.14898177E+02</pdfrwt>
<totfact> 0.66916648E-13</totfact>
</mgrwt>
</event>
<event>
 4    1 -0.5010510E-019  0.1489802E+02  0.7818608E-02  0.1871196E+00
          2   -1    0    0  501    0  0.00000000000E+00  0.00000000000E+00  0.11787520970E+03  0.11787520973E+03  0.25500000000E-02 0. -1.
         -2   -1    0    0    0  501 -0.00000000000E+00 -0.00000000000E+00 -0.47072957902E+00  0.47073648580E+00  0.25500000000E-02 0.  1.
         31    1    1    2    0    0  0.23718276641E-01 -0.12941185452E+00  0.59554929930E+02  0.60018879654E+02  0.74470750000E+01 0.  1.
        -31    1    1    2    0    0 -0.23718276641E-01  0.12941185452E+00  0.57849550193E+02  0.58327066560E+02  0.74470750000E+01 0. -1.
<mgrwt>
<rscale>  0 0.14898021E+02</rscale>
<asrwt>0</asrwt>
<pdfrwt beam="1">  1        2 0.97856709E+00 0.14898021E+02</pdfrwt>
<pdfrwt beam="2">  1       -2 0.99970289E+00 0.14898021E+02</pdfrwt>
<totfact>-0.10285257E-13</totfact>
</mgrwt>
</event>
<event>
 4    1 -0.5010510E-019  0.1492247E+02  0.7818608E-02  0.1870444E+00
         -2   -1    0    0    0  501 -0.00000000000E+00  0.00000000000E+00  0.11977160274E+03  0.11977160277E+03  0.25500000000E-02 0. -1.
          2   -1    0    0  501    0  0.00000000000E+00 -0.00000000000E+00 -0.46479790799E+00  0.46480490292E+00  0.25500000000E-02 0.  1.
         31    1    1    2    0    0 -0.28964897844E+00 -0.10720617643E+00  0.62394067706E+02  0.62837679784E+02  0.74470750000E+01 0. -1.
        -31    1    1    2    0    0  0.28964897844E+00  0.10720617643E+00  0.56912737126E+02  0.57398727886E+02  0.74470750000E+01 0.  1.
<mgrwt>
<rscale>  0 0.14922468E+02</rscale>
<asrwt>0</asrwt>
<pdfrwt beam="2">  1        2 0.98721668E+00 0.14922468E+02</pdfrwt>
<pdfrwt beam="1">  1       -2 0.99419874E+00 0.14922468E+02</pdfrwt>
<totfact>-0.24532233E-13</totfact>
</mgrwt>
</event>
<event>
 4    1  0.5010510E-019  0.1490060E+02  0.7818608E-02  0.1871117E+00
         -2   -1    0    0    0  501 -0.00000000000E+00  0.00000000000E+00  0.11801558793E+03  0.11801558796E+03  0.25500000000E-02 0. -1.
          2   -1    0    0  501    0  0.00000000000E+00 -0.00000000000E+00 -0.47033217450E+00  0.47033908711E+00  0.25500000000E-02 0.  1.
         31    1    1    2    0    0  0.10385465105E+00  0.13409570607E+00  0.59875767655E+02  0.60337345366E+02  0.74470750000E+01 0. -1.
        -31    1    1    2    0    0 -0.10385465105E+00 -0.13409570607E+00  0.57669488100E+02  0.58148581678E+02  0.74470750000E+01 0. -1.
<mgrwt>
<rscale>  0 0.14900596E+02</rscale>
<asrwt>0</asrwt>
<pdfrwt beam="2">  1        2 0.99886700E+00 0.14900596E+02</pdfrwt>
<pdfrwt beam="1">  1       -2 0.97972455E+00 0.14900596E+02</pdfrwt>
<totfact> 0.50727964E-13</totfact>
</mgrwt>
</event>
<event>
 4    1 -0.5010510E-019  0.1497884E+02  0.7818608E-02  0.1868715E+00
          2   -1    0    0  501    0  0.00000000000E+00  0.00000000000E+00  0.11977665642E+03  0.11977665645E+03  0.25500000000E-02 0. -1.
         -2   -1    0    0    0  501 -0.00000000000E+00 -0.00000000000E+00 -0.46829628139E+00  0.46830322406E+00  0.25500000000E-02 0.  1.
         31    1    1    2    0    0 -0.74416203296E+00  0.20270632811E+00  0.58097791441E+02  0.58578214068E+02  0.74470750000E+01 0.  1.
        -31    1    1    2    0    0  0.74416203296E+00 -0.20270632811E+00  0.61210568701E+02  0.61666745607E+02  0.74470750000E+01 0.  1.
<mgrwt>
<rscale>  0 0.14978836E+02</rscale>
<asrwt>0</asrwt>
<pdfrwt beam="1">  1        2 0.99426946E+00 0.14978836E+02</pdfrwt>
<pdfrwt beam="2">  1       -2 0.99461823E+00 0.14978836E+02</pdfrwt>
<totfact>-0.12795625E-13</totfact>
</mgrwt>
</event>
<event>
 4    1 -0.5010510E-019  0.1495663E+02  0.7818608E-02  0.1869395E+00
         -2   -1    0    0    0  501 -0.00000000000E+00  0.00000000000E+00  0.11994740321E+03  0.11994740324E+03  0.25500000000E-02 0.  1.
          2   -1    0    0  501    0  0.00000000000E+00 -0.00000000000E+00 -0.46624393275E+00  0.46625090598E+00  0.25500000000E-02 0. -1.
         31    1    1    2    0    0 -0.62926864708E+00  0.14531544500E+00  0.61525416556E+02  0.61977842041E+02  0.74470750000E+01 0.  1.
        -31    1    1    2    0    0  0.62926864708E+00 -0.14531544500E+00  0.57955742722E+02  0.58435812102E+02  0.74470750000E+01 0.  1.
<mgrwt>
<rscale>  0 0.14956627E+02</rscale>
<asrwt>0</asrwt>
<pdfrwt beam="2">  1        2 0.99028166E+00 0.14956627E+02</pdfrwt>
<pdfrwt beam="1">  1       -2 0.99566434E+00 0.14956627E+02</pdfrwt>
<totfact>-0.16835388E-13</totfact>
</mgrwt>
</event>
<event>
 4    1 -0.5010510E-019  0.1491988E+02  0.7818608E-02  0.1870523E+00
          2   -1    0    0  501    0  0.00000000000E+00  0.00000000000E+00  0.11865882448E+03  0.11865882450E+03  0.25500000000E-02 0. -1.
         -2   -1    0    0    0  501 -0.00000000000E+00 -0.00000000000E+00 -0.46899435227E+00  0.46900128460E+00  0.25500000000E-02 0.  1.
         31    1    1    2    0    0 -0.30660082019E+00 -0.28895620576E+00  0.60049965078E+02  0.60511442981E+02  0.74470750000E+01 0.  1.
        -31    1    1    2    0    0  0.30660082019E+00  0.28895620576E+00  0.58139865045E+02  0.58616382806E+02  0.74470750000E+01 0.  1.
<mgrwt>
<rscale>  0 0.14919884E+02</rscale>
<asrwt>0</asrwt>
<pdfrwt beam="1">  1        2 0.98503221E+00 0.14919884E+02</pdfrwt>
<pdfrwt beam="2">  1       -2 0.99605847E+00 0.14919884E+02</pdfrwt>
<totfact>-0.32199235E-13</totfact>
</mgrwt>
</event>
<event>
 4    1  0.5010510E-019  0.1490694E+02  0.7818608E-02  0.1870922E+00
         -2   -1    0    0    0  501 -0.00000000000E+00  0.00000000000E+00  0.11856374506E+03  0.11856374509E+03  0.25500000000E-02 0. -1.
          2   -1    0    0  501    0  0.00000000000E+00 -0.00000000000E+00 -0.46855626078E+00  0.46856319959E+00  0.25500000000E-02 0.  1.
         31    1    1    2    0    0  0.10980650624E+00  0.35495711693E-01  0.56761641518E+02  0.57248198149E+02  0.74470750000E+01 0.  1.
        -31    1    1    2    0    0 -0.10980650624E+00 -0.35495711693E-01  0.61333547282E+02  0.61784110139E+02  0.74470750000E+01 0. -1.
<mgrwt>
<rscale>  0 0.14906938E+02</rscale>
<asrwt>0</asrwt>
<pdfrwt beam="2">  1        2 0.99512857E+00 0.14906938E+02</pdfrwt>
<pdfrwt beam="1">  1       -2 0.98424241E+00 0.14906938E+02</pdfrwt>
<totfact> 0.58593534E-13</totfact>
</mgrwt>
</event>
<event>
 4    1  0.5010510E-019  0.1491860E+02  0.7818608E-02  0.1870563E+00
         -2   -1    0    0    0  501 -0.00000000000E+00  0.00000000000E+00  0.11835786842E+03  0.11835786845E+03  0.25500000000E-02 0. -1.
          2   -1    0    0  501    0  0.00000000000E+00 -0.00000000000E+00 -0.47010622912E+00  0.47011314505E+00  0.25500000000E-02 0.  1.
         31    1    1    2    0    0  0.20590210245E+00  0.35797979839E+00  0.58081865936E+02  0.58558796281E+02  0.74470750000E+01 0.  1.
        -31    1    1    2    0    0 -0.20590210245E+00 -0.35797979839E+00  0.59805896253E+02  0.60269185310E+02  0.74470750000E+01 0. -1.
<mgrwt>
<rscale>  0 0.14918604E+02</rscale>
<asrwt>0</asrwt>
<pdfrwt beam="2">  1        2 0.99840052E+00 0.14918604E+02</pdfrwt>
<pdfrwt beam="1">  1       -2 0.98255289E+00 0.14918604E+02</pdfrwt>
<totfact> 0.40251060E-13</totfact>
</mgrwt>
</event>
<event>
 4    1 -0.5010510E-019  0.1495547E+02  0.7818608E-02  0.1869430E+00
         -2   -1    0    0    0  501 -0.00000000000E+00  0.00000000000E+00  0.11959500220E+03  0.11959500223E+03  0.25500000000E-02 0. -1.
          2   -1    0    0  501    0  0.00000000000E+00 -0.00000000000E+00 -0.46754551279E+00  0.46755246661E+00  0.25500000000E-02 0.  1.
         31    1    1    2    0    0  0.26686757915E+00  0.55574040176E+00  0.61799119174E+02  0.62249258008E+02  0.74470750000E+01 0.  1.
        -31    1    1    2    0    0 -0.26686757915E+00 -0.55574040176E+00  0.57328337514E+02  0.57813296687E+02  0.74470750000E+01 0.  1.
<mgrwt>
<rscale>  0 0.14955471E+02</rscale>
<asrwt>0</asrwt>
<pdfrwt beam="2">  1        2 0.99302403E+00 0.14955471E+02</pdfrwt>
<pdfrwt beam="1">  1       -2 0.99276121E+00 0.14955471E+02</pdfrwt>
<totfact>-0.11630806E-13</totfact>
</mgrwt>
</event>
<event>
 4    1  0.5010510E-019  0.1489633E+02  0.7818608E-02  0.1871249E+00
         -2   -1    0    0    0  501 -0.00000000000E+00  0.00000000000E+00  0.11862617286E+03  0.11862617289E+03  0.25500000000E-02 0.  1.
          2   -1    0    0  501    0  0.00000000000E+00 -0.00000000000E+00 -0.46764309759E+00  0.46765004995E+00  0.25500000000E-02 0. -1.
         31    1    1    2    0    0 -0.23391839540E-02  0.12289764062E+00  0.58815168931E+02  0.59284889574E+02  0.74470750000E+01 0. -1.
        -31    1    1    2    0    0  0.23391839540E-02 -0.12289764062E+00  0.59343360831E+02  0.59808933363E+02  0.74470750000E+01 0.  1.
<mgrwt>
<rscale>  0 0.14896325E+02</rscale>
<asrwt>0</asrwt>
<pdfrwt beam="2">  1        2 0.99319888E+00 0.14896325E+02</pdfrwt>
<pdfrwt beam="1">  1       -2 0.98475105E+00 0.14896325E+02</pdfrwt>
<totfact> 0.60468258E-13</totfact>
</mgrwt>
</event>
<event>
 4    1 -0.5010510E-019  0.1494400E+02  0.7818608E-02  0.1869782E+00
          2   -1    0    0  501    0  0.00000000000E+00  0.00000000000E+00  0.11874721524E+03  0.11874721527E+03  0.25500000000E-02 0.  1.
         -2   -1    0    0    0  501 -0.00000000000E+00 -0.00000000000E+00 -0.47016151957E+00  0.47016843469E+00  0.25500000000E-02 0. -1.
         31    1    1    2    0    0  0.69653143192E-01  0.22899866023E+00  0.63612870119E+02  0.64047743620E+02  0.74470750000E+01 0.  1.
        -31    1    1    2    0    0 -0.69653143192E-01 -0.22899866023E+00  0.54664183600E+02  0.55169640081E+02  0.74470750000E+01 0. -1.
<mgrwt>
<rscale>  0 0.14944000E+02</rscale>
<asrwt>0</asrwt>
<pdfrwt beam="1">  1        2 0.98577274E+00 0.14944000E+02</pdfrwt>
<pdfrwt beam="2">  1       -2 0.99853043E+00 0.14944000E+02</pdfrwt>
<totfact>-0.14085199E-13</totfact>
</mgrwt>
</event>
<event>
 4    1 -0.5010510E-019  0.1490861E+02  0.7818608E-02  0.1870870E+00
          2   -1    0    0  501    0  0.00000000000E+00  0.00000000000E+00  0.11901250201E+03  0.11901250204E+03  0.25500000000E-02 0. -1.
         -2   -1    0    0    0  501 -0.00000000000E+00 -0.00000000000E+00 -0.46689413011E+00  0.46690109363E+00  0.25500000000E-02 0.  1.
         31    1    1    2    0    0 -0.20773472842E+00  0.20660907771E+00  0.58087116223E+02  0.58563280630E+02  0.74470750000E+01 0.  1.
        -31    1    1    2    0    0  0.20773472842E+00 -0.20660907771E+00  0.60458491658E+02  0.60916122502E+02  0.74470750000E+01 0.  1.
<mgrwt>
<rscale>  0 0.14908609E+02</rscale>
<asrwt>0</asrwt>
<pdfrwt beam="1">  1        2 0.98793930E+00 0.14908609E+02</pdfrwt>
<pdfrwt beam="2">  1       -2 0.99162708E+00 0.14908609E+02</pdfrwt>
<totfact>-0.12543505E-13</totfact>
</mgrwt>
</event>
<event>
 4    1 -0.5010510E-019  0.1492803E+02  0.7818608E-02  0.1870273E+00
         -2   -1    0    0    0  501 -0.00000000000E+00  0.00000000000E+00  0.12008739456E+03  0.12008739459E+03  0.25500000000E-02 0. -1.
          2   -1    0    0  501    0  0.00000000000E+00 -0.00000000000E+00 -0.46392105492E+00  0.46392806307E+00  0.25500000000E-02 0.  1.
         31    1    1    2    0    0  0.43086253067E+00 -0.23688737728E+00  0.58972093570E+02  0.59442480636E+02  0.74470750000E+01 0.  1.
        -31    1    1    2    0    0 -0.43086253067E+00  0.23688737728E+00  0.60651379935E+02  0.61108842014E+02  0.74470750000E+01 0.  1.
<mgrwt>
<rscale>  0 0.14928027E+02</rscale>
<asrwt>0</asrwt>
<pdfrwt beam="2">  1        2 0.98537148E+00 0.14928027E+02</pdfrwt>
<pdfrwt beam="1">  1       -2 0.99680268E+00 0.14928027E+02</pdfrwt>
<totfact>-0.27266026E-13</totfact>
</mgrwt>
</event>
<event>
 4    1 -0.5010510E-019  0.1498259E+02  0.7818608E-02  0.1868600E+00
         -2   -1    0    0    0  501 -0.00000000000E+00  0.00000000000E+00  0.12024468547E+03  0.12024468550E+03  0.25500000000E-02 0.  1.
          2   -1    0    0  501    0  0.00000000000E+00 -0.00000000000E+00 -0.46670753359E+00  0.46671449990E+00  0.25500000000E-02 0. -1.
         31    1    1    2    0    0 -0.44775925270E-01  0.39381671710E+00  0.54172082337E+02  0.54683000350E+02  0.74470750000E+01 0. -1.
        -31    1    1    2    0    0  0.44775925270E-01 -0.39381671710E+00  0.65605895604E+02  0.66028399651E+02  0.74470750000E+01 0. -1.
<mgrwt>
<rscale>  0 0.14982593E+02</rscale>
<asrwt>0</asrwt>
<pdfrwt beam="2">  1        2 0.99127200E+00 0.14982593E+02</pdfrwt>
<pdfrwt beam="1">  1       -2 0.99812631E+00 0.14982593E+02</pdfrwt>
<totfact>-0.90173986E-14</totfact>
</mgrwt>
</event>
<event>
 4    1 -0.5010510E-019  0.1492278E+02  0.7818608E-02  0.1870434E+00
          2   -1    0    0  501    0  0.00000000000E+00  0.00000000000E+00  0.11861412061E+03  0.11861412064E+03  0.25500000000E-02 0. -1.
         -2   -1    0    0    0  501 -0.00000000000E+00 -0.00000000000E+00 -0.46935301129E+00  0.46935993833E+00  0.25500000000E-02 0.  1.
         31    1    1    2    0    0 -0.91566274984E-01  0.44376142320E+00  0.59789434456E+02  0.60253138567E+02  0.74470750000E+01 0.  1.
        -31    1    1    2    0    0  0.91566274984E-01 -0.44376142320E+00  0.58355333145E+02  0.58830342011E+02  0.74470750000E+01 0. -1.
<mgrwt>
<rscale>  0 0.14922776E+02</rscale>
<asrwt>0</asrwt>
<pdfrwt beam="1">  1        2 0.98466554E+00 0.14922776E+02</pdfrwt>
<pdfrwt beam="2">  1       -2 0.99681570E+00 0.14922776E+02</pdfrwt>
<totfact>-0.30488545E-13</totfact>
</mgrwt>
</event>
<event>
 4    1  0.5010510E-019  0.1492050E+02  0.7818608E-02  0.1870504E+00
         -2   -1    0    0    0  501 -0.00000000000E+00  0.00000000000E+00  0.11873604761E+03  0.11873604763E+03  0.25500000000E-02 0.  1.
          2   -1    0    0  501    0  0.00000000000E+00 -0.00000000000E+00 -0.46872803712E+00  0.46873497340E+00  0.25500000000E-02 0. -1.
         31    1    1    2    0    0 -0.11627893856E-01 -0.33795015330E+00  0.61422264547E+02  0.61872997775E+02  0.74470750000E+01 0.  1.
        -31    1    1    2    0    0  0.11627893856E-01  0.33795015330E+00  0.56845055021E+02  0.57331784831E+02  0.74470750000E+01 0. -1.
<mgrwt>
<rscale>  0 0.14920500E+02</rscale>
<asrwt>0</asrwt>
<pdfrwt beam="2">  1        2 0.99549764E+00 0.14920500E+02</pdfrwt>
<pdfrwt beam="1">  1       -2 0.98566855E+00 0.14920500E+02</pdfrwt>
<totfact> 0.37568133E-13</totfact>
</mgrwt>
</event>
<event>
 4    1 -0.5010510E-019  0.1498327E+02  0.7818608E-02  0.1868579E+00
          2   -1    0    0  501    0  0.00000000000E+00  0.00000000000E+00  0.11952744329E+03  0.11952744332E+03  0.25500000000E-02 0.  1.
         -2   -1    0    0    0  501 -0.00000000000E+00 -0.00000000000E+00 -0.46955087060E+00  0.46955779472E+00  0.25500000000E-02 0. -1.
         31    1    1    2    0    0  0.58992579539E+00 -0.19243455406E+00  0.55286113675E+02  0.55788872858E+02  0.74470750000E+01 0. -1.
        -31    1    1    2    0    0 -0.58992579539E+00  0.19243455406E+00  0.63771778743E+02  0.64208128252E+02  0.74470750000E+01 0.  1.
<mgrwt>
<rscale>  0 0.14983275E+02</rscale>
<asrwt>0</asrwt>
<pdfrwt beam="1">  1        2 0.99221916E+00 0.14983275E+02</pdfrwt>
<pdfrwt beam="2">  1       -2 0.99726430E+00 0.14983275E+02</pdfrwt>
<totfact>-0.11217162E-13</totfact>
</mgrwt>
</event>
<event>
 4    1  0.5010510E-019  0.1493902E+02  0.7818608E-02  0.1869935E+00
         -2   -1    0    0    0  501 -0.00000000000E+00  0.00000000000E+00  0.11899028499E+03  0.11899028501E+03  0.25500000000E-02 0. -1.
          2   -1    0    0  501    0  0.00000000000E+00 -0.00000000000E+00 -0.46888842594E+00  0.46889535984E+00  0.25500000000E-02 0.  1.
         31    1    1    2    0    0  0.47576441036E+00  0.20992442502E+00  0.57233993641E+02  0.57718795675E+02  0.74470750000E+01 0.  1.
        -31    1    1    2    0    0 -0.47576441036E+00 -0.20992442502E+00  0.61287402919E+02  0.61740384698E+02  0.74470750000E+01 0. -1.
<mgrwt>
<rscale>  0 0.14939020E+02</rscale>
<asrwt>0</asrwt>
<pdfrwt beam="2">  1        2 0.99584531E+00 0.14939020E+02</pdfrwt>
<pdfrwt beam="1">  1       -2 0.98777208E+00 0.14939020E+02</pdfrwt>
<totfact> 0.15504451E-13</totfact>
</mgrwt>
</event>
<event>
 4    1  0.5010510E-019  0.1496170E+02  0.7818608E-02  0.1869239E+00
         -2   -1    0    0    0  501 -0.00000000000E+00  0.00000000000E+00  0.11906975812E+03  0.11906975815E+03  0.25500000000E-02 0.  1.
          2   -1    0    0  501    0  0.00000000000E+00 -0.00000000000E+00 -0.46999960201E+00  0.47000651952E+00  0.25500000000E-02 0. -1.
         31    1    1    2    0    0  0.62417584471E+00 -0.16370735037E+00  0.56932004975E+02  0.57420627932E+02  0.74470750000E+01 0. -1.
        -31    1    1    2    0    0 -0.62417584471E+00  0.16370735037E+00  0.61667753545E+02  0.62119136737E+02  0.74470750000E+01 0.  1.
<mgrwt>
<rscale>  0 0.14961705E+02</rscale>
<asrwt>0</asrwt>
<pdfrwt beam="2">  1        2 0.99819857E+00 0.14961705E+02</pdfrwt>
<pdfrwt beam="1">  1       -2 0.98843841E+00 0.14961705E+02</pdfrwt>
<totfact> 0.58096637E-14</totfact>
</mgrwt>
</event>
<event>
 4    1 -0.5010510E-019  0.1502194E+02  0.7818608E-02  0.1867400E+00
          2   -1    0    0  501    0  0.00000000000E+00  0.00000000000E+00  0.12012527721E+03  0.12012527724E+03  0.25500000000E-02 0.  1.
         -2   -1    0    0    0  501 -0.00000000000E+00 -0.00000000000E+00 -0.46962821286E+00  0.46963513584E+00  0.25500000000E-02 0. -1.
         31    1    1    2    0    0 -0.16134879542E+00  0.36555948480E+00  0.66990444694E+02  0.67404289727E+02  0.74470750000E+01 0.  1.
        -31    1    1    2    0    0  0.16134879542E+00 -0.36555948480E+00  0.52665204303E+02  0.53190622646E+02  0.74470750000E+01 0. -1.
<mgrwt>
<rscale>  0 0.15021936E+02</rscale>
<asrwt>0</asrwt>
<pdfrwt beam="1">  1        2 0.99716311E+00 0.15021936E+02</pdfrwt>
<pdfrwt beam="2">  1       -2 0.99744735E+00 0.15021936E+02</pdfrwt>
<totfact>-0.60764109E-14</totfact>
</mgrwt>
</event>
<event>
 4    1 -0.5010510E-019  0.1489919E+02  0.7818608E-02  0.1871160E+00
         -2   -1    0    0    0  501 -0.00000000000E+00  0.00000000000E+00  0.11945251917E+03  0.11945251920E+03  0.25500000000E-02 0.  1.
          2   -1    0    0  501    0  0.00000000000E+00 -0.00000000000E+00 -0.46458692743E+00  0.46459392553E+00  0.25500000000E-02 0. -1.
         31    1    1    2    0    0  0.58449880688E-01 -0.16837160041E+00  0.58880549139E+02  0.59349892656E+02  0.74470750000E+01 0. -1.
        -31    1    1    2    0    0 -0.58449880688E-01  0.16837160041E+00  0.60107383108E+02  0.60567220471E+02  0.74470750000E+01 0.  1.
<mgrwt>
<rscale>  0 0.14899195E+02</rscale>
<asrwt>0</asrwt>
<pdfrwt beam="2">  1        2 0.98676012E+00 0.14899195E+02</pdfrwt>
<pdfrwt beam="1">  1       -2 0.99155859E+00 0.14899195E+02</pdfrwt>
<totfact>-0.14207159E-13</totfact>
</mgrwt>
</event>
<event>
 4    1  0.5010510E-019  0.1493362E+02  0.7818608E-02  0.1870101E+00
          2   -1    0    0  501    0  0.00000000000E+00  0.00000000000E+00  0.12037183650E+03  0.12037183653E+03  0.25500000000E-02 0. -1.
         -2   -1    0    0    0  501 -0.00000000000E+00 -0.00000000000E+00 -0.46317144823E+00  0.46317846771E+00  0.25500000000E-02 0.  1.
         31    1    1    2    0    0  0.73740664504E-01  0.23896350887E+00  0.56059008781E+02  0.56552046230E+02  0.74470750000E+01 0.  1.
        -31    1    1    2    0    0 -0.73740664504E-01 -0.23896350887E+00  0.63849656270E+02  0.64282968764E+02  0.74470750000E+01 0. -1.
<mgrwt>
<rscale>  0 0.14933616E+02</rscale>
<asrwt>0</asrwt>
<pdfrwt beam="1">  1        2 0.99914845E+00 0.14933616E+02</pdfrwt>
<pdfrwt beam="2">  1       -2 0.98379439E+00 0.14933616E+02</pdfrwt>
<totfact> 0.17622054E-13</totfact>
</mgrwt>
</event>
<event>
 4    1 -0.5010510E-019  0.1500254E+02  0.7818608E-02  0.1867991E+00
         -2   -1    0    0    0  501 -0.00000000000E+00  0.00000000000E+00  0.12002112863E+03  0.12002112865E+03  0.25500000000E-02 0.  1.
          2   -1    0    0  501    0  0.00000000000E+00 -0.00000000000E+00 -0.46882285781E+00  0.46882979268E+00  0.25500000000E-02 0. -1.
         31    1    1    2    0    0 -0.77973674311E+00 -0.19945063221E+00  0.63012398632E+02  0.63456040512E+02  0.74470750000E+01 0. -1.
        -31    1    1    2    0    0  0.77973674311E+00  0.19945063221E+00  0.56539907136E+02  0.57033917934E+02  0.74470750000E+01 0.  1.
<mgrwt>
<rscale>  0 0.15002542E+02</rscale>
<asrwt>0</asrwt>
<pdfrwt beam="2">  1        2 0.99574016E+00 0.15002542E+02</pdfrwt>
<pdfrwt beam="1">  1       -2 0.99629528E+00 0.15002542E+02</pdfrwt>
<totfact>-0.99090519E-14</totfact>
</mgrwt>
</event>
<event>
 4    1  0.5010510E-019  0.1492965E+02  0.7818608E-02  0.1870223E+00
          2   -1    0    0  501    0  0.00000000000E+00  0.00000000000E+00  0.11981038894E+03  0.11981038897E+03  0.25500000000E-02 0. -1.
         -2   -1    0    0    0  501 -0.00000000000E+00 -0.00000000000E+00 -0.46509464682E+00  0.46510163728E+00  0.25500000000E-02 0.  1.
         31    1    1    2    0    0 -0.48436355189E+00  0.13985288371E+00  0.60498141901E+02  0.60956855778E+02  0.74470750000E+01 0.  1.
        -31    1    1    2    0    0  0.48436355189E+00 -0.13985288371E+00  0.58847152394E+02  0.59318634828E+02  0.74470750000E+01 0. -1.
<mgrwt>
<rscale>  0 0.14929647E+02</rscale>
<asrwt>0</asrwt>
<pdfrwt beam="1">  1        2 0.99452191E+00 0.14929647E+02</pdfrwt>
<pdfrwt beam="2">  1       -2 0.98784573E+00 0.14929647E+02</pdfrwt>
<totfact> 0.17261636E-13</totfact>
</mgrwt>
</event>
<event>
 4    1 -0.5010510E-019  0.1494382E+02  0.7818608E-02  0.1869788E+00
         -2   -1    0    0    0  501 -0.00000000000E+00  0.00000000000E+00  0.12016178938E+03  0.12016178941E+03  0.25500000000E-02 0.  1.
          2   -1    0    0  501    0  0.00000000000E+00 -0.00000000000E+00 -0.46461568730E+00  0.46462268496E+00  0.25500000000E-02 0. -1.
         31    1    1    2    0    0  0.44935638734E+00  0.17906020043E+00  0.56865592962E+02  0.57353191478E+02  0.74470750000E+01 0. -1.
        -31    1    1    2    0    0 -0.44935638734E+00 -0.17906020043E+00  0.62831580733E+02  0.63273220616E+02  0.74470750000E+01 0.  1.
<mgrwt>
<rscale>  0 0.14943825E+02</rscale>
<asrwt>0</asrwt>
<pdfrwt beam="2">  1        2 0.98684353E+00 0.14943825E+02</pdfrwt>
<pdfrwt beam="1">  1       -2 0.99742357E+00 0.14943825E+02</pdfrwt>
<totfact>-0.18852964E-13</totfact>
</mgrwt>
</event>
<event>
 4    1 -0.5010510E-019  0.1490075E+02  0.7818608E-02  0.1871112E+00
         -2   -1    0    0    0  501 -0.00000000000E+00  0.00000000000E+00  0.12004344407E+03  0.12004344410E+03  0.25500000000E-02 0.  1.
          2   -1    0    0  501    0  0.00000000000E+00 -0.00000000000E+00 -0.46239675331E+00  0.46240378455E+00  0.25500000000E-02 0. -1.
         31    1    1    2    0    0  0.49547681969E-01 -0.21709767410E-01  0.61530157120E+02  0.61979206897E+02  0.74470750000E+01 0.  1.
        -31    1    1    2    0    0 -0.49547681969E-01  0.21709767410E-01  0.58050890197E+02  0.58526640986E+02  0.74470750000E+01 0. -1.
<mgrwt>
<rscale>  0 0.14900755E+02</rscale>
<asrwt>0</asrwt>
<pdfrwt beam="2">  1        2 0.98214494E+00 0.14900755E+02</pdfrwt>
<pdfrwt beam="1">  1       -2 0.99642666E+00 0.14900755E+02</pdfrwt>
<totfact>-0.49726749E-13</totfact>
</mgrwt>
</event>
<event>
 4    1 -0.5010510E-019  0.1490920E+02  0.7818608E-02  0.1870852E+00
         -2   -1    0    0    0  501 -0.00000000000E+00  0.00000000000E+00  0.12008776220E+03  0.12008776223E+03  0.25500000000E-02 0. -1.
          2   -1    0    0  501    0  0.00000000000E+00 -0.00000000000E+00 -0.46275000785E+00  0.46275703373E+00  0.25500000000E-02 0.  1.
         31    1    1    2    0    0  0.29144281367E+00 -0.12028798341E+00  0.60723850569E+02  0.61179607404E+02  0.74470750000E+01 0. -1.
        -31    1    1    2    0    0 -0.29144281367E+00  0.12028798341E+00  0.58901161626E+02  0.59370911860E+02  0.74470750000E+01 0.  1.
<mgrwt>
<rscale>  0 0.14909197E+02</rscale>
<asrwt>0</asrwt>
<pdfrwt beam="2">  1        2 0.98289377E+00 0.14909197E+02</pdfrwt>
<pdfrwt beam="1">  1       -2 0.99679604E+00 0.14909197E+02</pdfrwt>
<totfact>-0.41157583E-13</totfact>
</mgrwt>
</event>
<event>
 4    1 -0.5010510E-019  0.1497741E+02  0.7818608E-02  0.1868759E+00
         -2   -1    0    0    0  501 -0.00000000000E+00  0.00000000000E+00  0.11949447897E+03  0.11949447900E+03  0.25500000000E-02 0. -1.
          2   -1    0    0  501    0  0.00000000000E+00 -0.00000000000E+00 -0.46931253553E+00  0.46931946316E+00  0.25500000000E-02 0.  1.
         31    1    1    2    0    0 -0.72254612999E+00 -0.14150875576E-03  0.56983827317E+02  0.57472929059E+02  0.74470750000E+01 0. -1.
        -31    1    1    2    0    0  0.72254612999E+00  0.14150875576E-03  0.62041339117E+02  0.62490869400E+02  0.74470750000E+01 0. -1.
<mgrwt>
<rscale>  0 0.14977406E+02</rscale>
<asrwt>0</asrwt>
<pdfrwt beam="2">  1        2 0.99675902E+00 0.14977406E+02</pdfrwt>
<pdfrwt beam="1">  1       -2 0.99194462E+00 0.14977406E+02</pdfrwt>
<totfact>-0.59862312E-14</totfact>
</mgrwt>
</event>
<event>
 4    1 -0.5010510E-019  0.1498522E+02  0.7818608E-02  0.1868520E+00
          2   -1    0    0  501    0  0.00000000000E+00  0.00000000000E+00  0.12002793298E+03  0.12002793301E+03  0.25500000000E-02 0.  1.
         -2   -1    0    0    0  501 -0.00000000000E+00 -0.00000000000E+00 -0.46771436881E+00  0.46772132012E+00  0.25500000000E-02 0. -1.
         31    1    1    2    0    0 -0.72450483692E+00  0.33526462416E-01  0.62938193177E+02  0.63381394097E+02  0.74470750000E+01 0. -1.
        -31    1    1    2    0    0  0.72450483692E+00 -0.33526462416E-01  0.56622025438E+02  0.57114260234E+02  0.74470750000E+01 0. -1.
<mgrwt>
<rscale>  0 0.14985221E+02</rscale>
<asrwt>0</asrwt>
<pdfrwt beam="1">  1        2 0.99634238E+00 0.14985221E+02</pdfrwt>
<pdfrwt beam="2">  1       -2 0.99339522E+00 0.14985221E+02</pdfrwt>
<totfact>-0.92289045E-14</totfact>
</mgrwt>
</event>
<event>
 4    1 -0.5010510E-019  0.1496872E+02  0.7818608E-02  0.1869025E+00
          2   -1    0    0  501    0  0.00000000000E+00  0.00000000000E+00  0.11955353114E+03  0.11955353117E+03  0.25500000000E-02 0. -1.
         -2   -1    0    0    0  501 -0.00000000000E+00 -0.00000000000E+00 -0.46853658157E+00  0.46854352067E+00  0.25500000000E-02 0.  1.
         31    1    1    2    0    0  0.71179938981E+00  0.20361772085E+00  0.60285046441E+02  0.60747789005E+02  0.74470750000E+01 0.  1.
        -31    1    1    2    0    0 -0.71179938981E+00 -0.20361772085E+00  0.58799948120E+02  0.59274285685E+02  0.74470750000E+01 0.  1.
<mgrwt>
<rscale>  0 0.14968717E+02</rscale>
<asrwt>0</asrwt>
<pdfrwt beam="1">  1        2 0.99242649E+00 0.14968717E+02</pdfrwt>
<pdfrwt beam="2">  1       -2 0.99511937E+00 0.14968717E+02</pdfrwt>
<totfact>-0.14628425E-13</totfact>
</mgrwt>
</event>
<event>
 4    1 -0.5010510E-019  0.1490181E+02  0.7818608E-02  0.1871080E+00
          2   -1    0    0  501    0  0.00000000000E+00  0.00000000000E+00  0.11867707359E+03  0.11867707362E+03  0.25500000000E-02 0.  1.
         -2   -1    0    0    0  501 -0.00000000000E+00 -0.00000000000E+00 -0.46778692698E+00  0.46779387721E+00  0.25500000000E-02 0. -1.
         31    1    1    2    0    0  0.15254490938E+00 -0.18350720439E+00  0.59195217289E+02  0.59662296476E+02  0.74470750000E+01 0. -1.
        -31    1    1    2    0    0 -0.15254490938E+00  0.18350720439E+00  0.59014069373E+02  0.59482571017E+02  0.74470750000E+01 0.  1.
<mgrwt>
<rscale>  0 0.14901812E+02</rscale>
<asrwt>0</asrwt>
<pdfrwt beam="1">  1        2 0.98517313E+00 0.14901812E+02</pdfrwt>
<pdfrwt beam="2">  1       -2 0.99350482E+00 0.14901812E+02</pdfrwt>
<totfact>-0.31584379E-13</totfact>
</mgrwt>
</event>
<event>
 4    1 -0.5010510E-019  0.1493818E+02  0.7818608E-02  0.1869961E+00
          2   -1    0    0  501    0  0.00000000000E+00  0.00000000000E+00  0.11909812998E+03  0.11909813000E+03  0.25500000000E-02 0. -1.
         -2   -1    0    0    0  501 -0.00000000000E+00 -0.00000000000E+00 -0.46841088551E+00  0.46841782648E+00  0.25500000000E-02 0.  1.
         31    1    1    2    0    0  0.28739928917E+00 -0.19909057215E+00  0.62948714540E+02  0.63388656901E+02  0.74470750000E+01 0. -1.
        -31    1    1    2    0    0 -0.28739928917E+00  0.19909057215E+00  0.55681004549E+02  0.56177890928E+02  0.74470750000E+01 0.  1.
<mgrwt>
<rscale>  0 0.14938176E+02</rscale>
<asrwt>0</asrwt>
<pdfrwt beam="1">  1        2 0.98865987E+00 0.14938176E+02</pdfrwt>
<pdfrwt beam="2">  1       -2 0.99483861E+00 0.14938176E+02</pdfrwt>
<totfact>-0.20633580E-13</totfact>
</mgrwt>
</event>
<event>
 4    1 -0.5010510E-019  0.1491560E+02  0.7818608E-02  0.1870655E+00
          2   -1    0    0  501    0  0.00000000000E+00  0.00000000000E+00  0.11859227257E+03  0.11859227260E+03  0.25500000000E-02 0.  1.
         -2   -1    0    0    0  501 -0.00000000000E+00 -0.00000000000E+00 -0.46898797106E+00  0.46899490349E+00  0.25500000000E-02 0. -1.
         31    1    1    2    0    0 -0.80855475549E-01  0.35892858907E+00  0.57812968973E+02  0.58291797664E+02  0.74470750000E+01 0. -1.
        -31    1    1    2    0    0  0.80855475549E-01 -0.35892858907E+00  0.60310315629E+02  0.60769469840E+02  0.74470750000E+01 0.  1.
<mgrwt>
<rscale>  0 0.14915598E+02</rscale>
<asrwt>0</asrwt>
<pdfrwt beam="1">  1        2 0.98448186E+00 0.14915598E+02</pdfrwt>
<pdfrwt beam="2">  1       -2 0.99604277E+00 0.14915598E+02</pdfrwt>
<totfact>-0.35291472E-13</totfact>
</mgrwt>
</event>
<event>
 4    1  0.5010510E-019  0.1490177E+02  0.7818608E-02  0.1871081E+00
         -2   -1    0    0    0  501 -0.00000000000E+00  0.00000000000E+00  0.11856972624E+03  0.11856972627E+03  0.25500000000E-02 0. -1.
          2   -1    0    0  501    0  0.00000000000E+00 -0.00000000000E+00 -0.46820780778E+00  0.46821475176E+00  0.25500000000E-02 0.  1.
         31    1    1    2    0    0 -0.21555515571E+00 -0.30729767508E-01  0.58278251799E+02  0.58752540091E+02  0.74470750000E+01 0.  1.
        -31    1    1    2    0    0  0.21555515571E+00  0.30729767508E-01  0.59823266634E+02  0.60285400928E+02  0.74470750000E+01 0. -1.
<mgrwt>
<rscale>  0 0.14901770E+02</rscale>
<asrwt>0</asrwt>
<pdfrwt beam="2">  1        2 0.99439164E+00 0.14901770E+02</pdfrwt>
<pdfrwt beam="1">  1       -2 0.98428898E+00 0.14901770E+02</pdfrwt>
<totfact> 0.62180347E-13</totfact>
</mgrwt>
</event>
<event>
 4    1 -0.5010510E-019  0.1495990E+02  0.7818608E-02  0.1869295E+00
         -2   -1    0    0    0  501 -0.00000000000E+00  0.00000000000E+00  0.11975724732E+03  0.11975724735E+03  0.25500000000E-02 0. -1.
          2   -1    0    0  501    0  0.00000000000E+00 -0.00000000000E+00 -0.46718861791E+00  0.46719557704E+00  0.25500000000E-02 0.  1.
         31    1    1    2    0    0 -0.24131778169E+00 -0.63562098591E+00  0.58289071847E+02  0.58766802458E+02  0.74470750000E+01 0. -1.
        -31    1    1    2    0    0  0.24131778169E+00  0.63562098591E+00  0.61000986858E+02  0.61457640469E+02  0.74470750000E+01 0. -1.
<mgrwt>
<rscale>  0 0.14959899E+02</rscale>
<asrwt>0</asrwt>
<pdfrwt beam="2">  1        2 0.99227421E+00 0.14959899E+02</pdfrwt>
<pdfrwt beam="1">  1       -2 0.99409981E+00 0.14959899E+02</pdfrwt>
<totfact>-0.14608195E-13</totfact>
</mgrwt>
</event>
<event>
 4    1  0.5010510E-019  0.1491141E+02  0.7818608E-02  0.1870784E+00
         -2   -1    0    0    0  501 -0.00000000000E+00  0.00000000000E+00  0.11854047144E+03  0.11854047146E+03  0.25500000000E-02 0. -1.
          2   -1    0    0  501    0  0.00000000000E+00 -0.00000000000E+00 -0.46892960610E+00  0.46893653939E+00  0.25500000000E-02 0.  1.
         31    1    1    2    0    0 -0.15628659858E+00 -0.31713929779E+00  0.59516089834E+02  0.59981237717E+02  0.74470750000E+01 0.  1.
        -31    1    1    2    0    0  0.15628659858E+00  0.31713929779E+00  0.58555451996E+02  0.59028170286E+02  0.74470750000E+01 0.  1.
<mgrwt>
<rscale>  0 0.14911412E+02</rscale>
<asrwt>0</asrwt>
<pdfrwt beam="2">  1        2 0.99591759E+00 0.14911412E+02</pdfrwt>
<pdfrwt beam="1">  1       -2 0.98405305E+00 0.14911412E+02</pdfrwt>
<totfact> 0.55766996E-13</totfact>
</mgrwt>
</event>
<event>
 4    1 -0.5010510E-019  0.1496254E+02  0.7818608E-02  0.1869214E+00
         -2   -1    0    0    0  501 -0.00000000000E+00  0.00000000000E+00  0.11933787279E+03  0.11933787281E+03  0.25500000000E-02 0.  1.
          2   -1    0    0  501    0  0.00000000000E+00 -0.00000000000E+00 -0.46899607684E+00  0.46900300915E+00  0.25500000000E-02 0. -1.
         31    1    1    2    0    0 -0.49328346827E+00  0.37061381996E+00  0.56549631337E+02  0.57041216797E+02  0.74470750000E+01 0. -1.
        -31    1    1    2    0    0  0.49328346827E+00 -0.37061381996E+00  0.62319245373E+02  0.62765659027E+02  0.74470750000E+01 0.  1.
<mgrwt>
<rscale>  0 0.14962541E+02</rscale>
<asrwt>0</asrwt>
<pdfrwt beam="2">  1        2 0.99608443E+00 0.14962541E+02</pdfrwt>
<pdfrwt beam="1">  1       -2 0.99064707E+00 0.14962541E+02</pdfrwt>
<totfact>-0.22366488E-14</totfact>
</mgrwt>
</event>
<event>
 4    1  0.5010510E-019  0.1490162E+02  0.7818608E-02  0.1871086E+00
         -2   -1    0    0    0  501 -0.00000000000E+00  0.00000000000E+00  0.11799979642E+03  0.11799979645E+03  0.25500000000E-02 0. -1.
          2   -1    0    0  501    0  0.00000000000E+00 -0.00000000000E+00 -0.47045978689E+00  0.47046669763E+00  0.25500000000E-02 0.  1.
         31    1    1    2    0    0 -0.13097272257E+00  0.19308738234E+00  0.58488416468E+02  0.58961073800E+02  0.74470750000E+01 0.  1.
        -31    1    1    2    0    0  0.13097272257E+00 -0.19308738234E+00  0.59040920164E+02  0.59509189345E+02  0.74470750000E+01 0.  1.
<mgrwt>
<rscale>  0 0.14901620E+02</rscale>
<asrwt>0</asrwt>
<pdfrwt beam="2">  1        2 0.99913641E+00 0.14901620E+02</pdfrwt>
<pdfrwt beam="1">  1       -2 0.97959503E+00 0.14901620E+02</pdfrwt>
<totfact> 0.40694935E-13</totfact>
</mgrwt>
</event>
<event>
 4    1 -0.5010510E-019  0.1500661E+02  0.7818608E-02  0.1867867E+00
         -2   -1    0    0    0  501 -0.00000000000E+00  0.00000000000E+00  0.11970949435E+03  0.11970949438E+03  0.25500000000E-02 0.  1.
          2   -1    0    0  501    0  0.00000000000E+00 -0.00000000000E+00 -0.47029806767E+00  0.47030498079E+00  0.25500000000E-02 0. -1.
         31    1    1    2    0    0  0.68807835168E+00  0.57486488461E+00  0.61154078421E+02  0.61612370146E+02  0.74470750000E+01 0.  1.
        -31    1    1    2    0    0 -0.68807835168E+00 -0.57486488461E+00  0.58085117862E+02  0.58567429212E+02  0.74470750000E+01 0. -1.
<mgrwt>
<rscale>  0 0.15006607E+02</rscale>
<asrwt>0</asrwt>
<pdfrwt beam="2">  1        2 0.99885096E+00 0.15006607E+02</pdfrwt>
<pdfrwt beam="1">  1       -2 0.99373067E+00 0.15006607E+02</pdfrwt>
<totfact>-0.39598282E-14</totfact>
</mgrwt>
</event>
<event>
 4    1  0.5010510E-019  0.1492509E+02  0.7818608E-02  0.1870363E+00
          2   -1    0    0  501    0  0.00000000000E+00  0.00000000000E+00  0.11995011375E+03  0.11995011378E+03  0.25500000000E-02 0.  1.
         -2   -1    0    0    0  501 -0.00000000000E+00 -0.00000000000E+00 -0.46426952956E+00  0.46427653245E+00  0.25500000000E-02 0. -1.
         31    1    1    2    0    0 -0.39741402695E+00 -0.82378322387E-01  0.57670928422E+02  0.58151179138E+02  0.74470750000E+01 0. -1.
        -31    1    1    2    0    0  0.39741402695E+00  0.82378322387E-01  0.61814915799E+02  0.62263211171E+02  0.74470750000E+01 0.  1.
<mgrwt>
<rscale>  0 0.14925094E+02</rscale>
<asrwt>0</asrwt>
<pdfrwt beam="1">  1        2 0.99567043E+00 0.14925094E+02</pdfrwt>
<pdfrwt beam="2">  1       -2 0.98610444E+00 0.14925094E+02</pdfrwt>
<totfact> 0.31868886E-13</totfact>
</mgrwt>
</event>
<event>
 4    1  0.5010510E-019  0.1493549E+02  0.7818608E-02  0.1870043E+00
         -2   -1    0    0    0  501 -0.00000000000E+00  0.00000000000E+00  0.11866307478E+03  0.11866307480E+03  0.25500000000E-02 0.  1.
          2   -1    0    0  501    0  0.00000000000E+00 -0.00000000000E+00 -0.46995940503E+00  0.46996632313E+00  0.25500000000E-02 0. -1.
         31    1    1    2    0    0  0.42616442473E+00  0.35203179182E+00  0.58676506614E+02  0.59149783575E+02  0.74470750000E+01 0.  1.
        -31    1    1    2    0    0 -0.42616442473E+00 -0.35203179182E+00  0.59516608757E+02  0.59983257552E+02  0.74470750000E+01 0.  1.
<mgrwt>
<rscale>  0 0.14935494E+02</rscale>
<asrwt>0</asrwt>
<pdfrwt beam="2">  1        2 0.99810009E+00 0.14935494E+02</pdfrwt>
<pdfrwt beam="1">  1       -2 0.98507534E+00 0.14935494E+02</pdfrwt>
<totfact> 0.25035055E-13</totfact>
</mgrwt>
</event>
<event>
 4    1 -0.5010510E-019  0.1490710E+02  0.7818608E-02  0.1870917E+00
          2   -1    0    0  501    0  0.00000000000E+00  0.00000000000E+00  0.11806220883E+03  0.11806220886E+03  0.25500000000E-02 0. -1.
         -2   -1    0    0    0  501 -0.00000000000E+00 -0.00000000000E+00 -0.47055724884E+00  0.47056415815E+00  0.25500000000E-02 0.  1.
         31    1    1    2    0    0 -0.29797443012E+00  0.70554737852E-01  0.58379113744E+02  0.58852983053E+02  0.74470750000E+01 0. -1.
        -31    1    1    2    0    0  0.29797443012E+00 -0.70554737852E-01  0.59212537839E+02  0.59679789964E+02  0.74470750000E+01 0.  1.
<mgrwt>
<rscale>  0 0.14907104E+02</rscale>
<asrwt>0</asrwt>
<pdfrwt beam="1">  1        2 0.98011190E+00 0.14907104E+02</pdfrwt>
<pdfrwt beam="2">  1       -2 0.99934467E+00 0.14907104E+02</pdfrwt>
<totfact>-0.17209366E-13</totfact>
</mgrwt>
</event>
<event>
 4    1 -0.5010510E-019  0.1493404E+02  0.7818608E-02  0.1870088E+00
         -2   -1    0    0    0  501 -0.00000000000E+00  0.00000000000E+00  0.12030841919E+03  0.12030841922E+03  0.25500000000E-02 0.  1.
          2   -1    0    0  501    0  0.00000000000E+00 -0.00000000000E+00 -0.46344219194E+00  0.46344920732E+00  0.25500000000E-02 0. -1.
         31    1    1    2    0    0 -0.31798650601E-01 -0.43853193851E+00  0.57312307059E+02  0.57795785209E+02  0.74470750000E+01 0.  1.
        -31    1    1    2    0    0  0.31798650601E-01  0.43853193851E+00  0.62532669940E+02  0.62976083216E+02  0.74470750000E+01 0.  1.
<mgrwt>
<rscale>  0 0.14934045E+02</rscale>
<asrwt>0</asrwt>
<pdfrwt beam="2">  1        2 0.98436525E+00 0.14934045E+02</pdfrwt>
<pdfrwt beam="1">  1       -2 0.99862631E+00 0.14934045E+02</pdfrwt>
<totfact>-0.16660841E-13</totfact>
</mgrwt>
</event>
<event>
 4    1 -0.5010510E-019  0.1495643E+02  0.7818608E-02  0.1869401E+00
          2   -1    0    0  501    0  0.00000000000E+00  0.00000000000E+00  0.11938597446E+03  0.11938597449E+03  0.25500000000E-02 0. -1.
         -2   -1    0    0    0  501 -0.00000000000E+00 -0.00000000000E+00 -0.46842430292E+00  0.46843124369E+00  0.25500000000E-02 0.  1.
         31    1    1    2    0    0 -0.61861695475E+00 -0.26536912965E+00  0.60324673542E+02  0.60786332936E+02  0.74470750000E+01 0. -1.
        -31    1    1    2    0    0  0.61861695475E+00  0.26536912965E+00  0.58592876618E+02  0.59068072798E+02  0.74470750000E+01 0. -1.
<mgrwt>
<rscale>  0 0.14956431E+02</rscale>
<asrwt>0</asrwt>
<pdfrwt beam="1">  1        2 0.99104008E+00 0.14956431E+02</pdfrwt>
<pdfrwt beam="2">  1       -2 0.99487639E+00 0.14956431E+02</pdfrwt>
<totfact>-0.16324444E-13</totfact>
</mgrwt>
</event>
<event>
 4    1 -0.5010510E-019  0.1495779E+02  0.7818608E-02  0.1869359E+00
         -2   -1    0    0    0  501 -0.00000000000E+00  0.00000000000E+00  0.12015686494E+03  0.12015686497E+03  0.25500000000E-02 0. -1.
          2   -1    0    0  501    0  0.00000000000E+00 -0.00000000000E+00 -0.46550327090E+00  0.46551025522E+00  0.25500000000E-02 0.  1.
         31    1    1    2    0    0  0.87393602059E-02 -0.33476010333E+00  0.64702770420E+02  0.65130788164E+02  0.74470750000E+01 0. -1.
        -31    1    1    2    0    0 -0.87393602059E-02  0.33476010333E+00  0.54988591252E+02  0.55491587062E+02  0.74470750000E+01 0.  1.
<mgrwt>
<rscale>  0 0.14957785E+02</rscale>
<asrwt>0</asrwt>
<pdfrwt beam="2">  1        2 0.98872130E+00 0.14957785E+02</pdfrwt>
<pdfrwt beam="1">  1       -2 0.99739019E+00 0.14957785E+02</pdfrwt>
<totfact>-0.14885826E-13</totfact>
</mgrwt>
</event>
<event>
 4    1  0.5010510E-019  0.1493808E+02  0.7818608E-02  0.1869964E+00
         -2   -1    0    0    0  501 -0.00000000000E+00  0.00000000000E+00  0.11907803714E+03  0.11907803717E+03  0.25500000000E-02 0. -1.
          2   -1    0    0  501    0  0.00000000000E+00 -0.00000000000E+00 -0.46848405653E+00  0.46849099641E+00  0.25500000000E-02 0.  1.
         31    1    1    2    0    0  0.39167285538E+00  0.41051286470E+00  0.59910237143E+02  0.60373979238E+02  0.74470750000E+01 0.  1.
        -31    1    1    2    0    0 -0.39167285538E+00 -0.41051286470E+00  0.58699315941E+02  0.59172548926E+02  0.74470750000E+01 0. -1.
<mgrwt>
<rscale>  0 0.14938083E+02</rscale>
<asrwt>0</asrwt>
<pdfrwt beam="2">  1        2 0.99499275E+00 0.14938083E+02</pdfrwt>
<pdfrwt beam="1">  1       -2 0.98849434E+00 0.14938083E+02</pdfrwt>
<totfact> 0.11051000E-13</totfact>
</mgrwt>
</event>
<event>
 4    1 -0.5010510E-019  0.1490409E+02  0.7818608E-02  0.1871010E+00
          2   -1    0    0  501    0  0.00000000000E+00  0.00000000000E+00  0.11843135967E+03  0.11843135970E+03  0.25500000000E-02 0. -1.
         -2   -1    0    0    0  501 -0.00000000000E+00 -0.00000000000E+00 -0.46890059265E+00  0.46890752637E+00  0.25500000000E-02 0.  1.
         31    1    1    2    0    0  0.15973651078E+00 -0.30216516534E-01  0.57240816379E+02  0.57723447702E+02  0.74470750000E+01 0.  1.
        -31    1    1    2    0    0 -0.15973651078E+00  0.30216516534E-01  0.60721642699E+02  0.61176819522E+02  0.74470750000E+01 0. -1.
<mgrwt>
<rscale>  0 0.14904086E+02</rscale>
<asrwt>0</asrwt>
<pdfrwt beam="1">  1        2 0.98315060E+00 0.14904086E+02</pdfrwt>
<pdfrwt beam="2">  1       -2 0.99585260E+00 0.14904086E+02</pdfrwt>
<totfact>-0.44962472E-13</totfact>
</mgrwt>
</event>
<event>
 4    1 -0.5010510E-019  0.1492348E+02  0.7818608E-02  0.1870412E+00
          2   -1    0    0  501    0  0.00000000000E+00  0.00000000000E+00  0.11898774063E+03  0.11898774066E+03  0.25500000000E-02 0. -1.
         -2   -1    0    0    0  501 -0.00000000000E+00 -0.00000000000E+00 -0.46792361145E+00  0.46793055965E+00  0.25500000000E-02 0.  1.
         31    1    1    2    0    0  0.14898043609E+00  0.44035654878E+00  0.58855316215E+02  0.59326413020E+02  0.74470750000E+01 0.  1.
        -31    1    1    2    0    0 -0.14898043609E+00 -0.44035654878E+00  0.59664500804E+02  0.60129258197E+02  0.74470750000E+01 0. -1.
<mgrwt>
<rscale>  0 0.14923484E+02</rscale>
<asrwt>0</asrwt>
<pdfrwt beam="1">  1        2 0.98774307E+00 0.14923484E+02</pdfrwt>
<pdfrwt beam="2">  1       -2 0.99380417E+00 0.14923484E+02</pdfrwt>
<totfact>-0.22252583E-13</totfact>
</mgrwt>
</event>
<event>
 4    1  0.5010510E-019  0.1491295E+02  0.7818608E-02  0.1870736E+00
          2   -1    0    0  501    0  0.00000000000E+00  0.00000000000E+00  0.11941156518E+03  0.11941156521E+03  0.25500000000E-02 0.  1.
         -2   -1    0    0    0  501 -0.00000000000E+00 -0.00000000000E+00 -0.46560490620E+00  0.46561188900E+00  0.25500000000E-02 0. -1.
         31    1    1    2    0    0  0.15549089356E+00 -0.28488483351E+00  0.60971844552E+02  0.61425809648E+02  0.74470750000E+01 0. -1.
        -31    1    1    2    0    0 -0.15549089356E+00  0.28488483351E+00  0.57974115725E+02  0.58451367451E+02  0.74470750000E+01 0.  1.
<mgrwt>
<rscale>  0 0.14912952E+02</rscale>
<asrwt>0</asrwt>
<pdfrwt beam="1">  1        2 0.99122837E+00 0.14912952E+02</pdfrwt>
<pdfrwt beam="2">  1       -2 0.98891251E+00 0.14912952E+02</pdfrwt>
<totfact> 0.10593560E-13</totfact>
</mgrwt>
</event>
<event>
 4    1  0.5010510E-019  0.1490243E+02  0.7818608E-02  0.1871061E+00
          2   -1    0    0  501    0  0.00000000000E+00  0.00000000000E+00  0.12022555927E+03  0.12022555930E+03  0.25500000000E-02 0.  1.
         -2   -1    0    0    0  501 -0.00000000000E+00 -0.00000000000E+00 -0.46180001928E+00  0.46180705961E+00  0.25500000000E-02 0. -1.
         31    1    1    2    0    0  0.10230114711E+00  0.16776903046E+00  0.58652238941E+02  0.59123452798E+02  0.74470750000E+01 0. -1.
        -31    1    1    2    0    0 -0.10230114711E+00 -0.16776903046E+00  0.61111520311E+02  0.61563913559E+02  0.74470750000E+01 0. -1.
<mgrwt>
<rscale>  0 0.14902428E+02</rscale>
<asrwt>0</asrwt>
<pdfrwt beam="1">  1        2 0.99792759E+00 0.14902428E+02</pdfrwt>
<pdfrwt beam="2">  1       -2 0.98088803E+00 0.14902428E+02</pdfrwt>
<totfact> 0.68402880E-13</totfact>
</mgrwt>
</event>
<event>
 4    1  0.5010510E-019  0.1494537E+02  0.7818608E-02  0.1869740E+00
         -2   -1    0    0    0  501 -0.00000000000E+00  0.00000000000E+00  0.11916749622E+03  0.11916749624E+03  0.25500000000E-02 0. -1.
          2   -1    0    0  501    0  0.00000000000E+00 -0.00000000000E+00 -0.46858908725E+00  0.46859602558E+00  0.25500000000E-02 0.  1.
         31    1    1    2    0    0 -0.28075795907E+00 -0.39236905377E+00  0.56256409674E+02  0.56749232013E+02  0.74470750000E+01 0.  1.
        -31    1    1    2    0    0  0.28075795907E+00  0.39236905377E+00  0.62442497456E+02  0.62886860258E+02  0.74470750000E+01 0. -1.
<mgrwt>
<rscale>  0 0.14945368E+02</rscale>
<asrwt>0</asrwt>
<pdfrwt beam="2">  1        2 0.99521787E+00 0.14945368E+02</pdfrwt>
<pdfrwt beam="1">  1       -2 0.98923492E+00 0.14945368E+02</pdfrwt>
<totfact> 0.54817436E-14</totfact>
</mgrwt>
</event>
<event>
 4    1  0.5010510E-019  0.1490578E+02  0.7818608E-02  0.1870957E+00
         -2   -1    0    0    0  501 -0.00000000000E+00  0.00000000000E+00  0.11846612816E+03  0.11846612819E+03  0.25500000000E-02 0. -1.
          2   -1    0    0  501    0  0.00000000000E+00 -0.00000000000E+00 -0.46886937987E+00  0.46887631405E+00  0.25500000000E-02 0.  1.
         31    1    1    2    0    0  0.38530526685E-01  0.29167166329E+00  0.58931387240E+02  0.59400790273E+02  0.74470750000E+01 0. -1.
        -31    1    1    2    0    0 -0.38530526685E-01 -0.29167166329E+00  0.59065871538E+02  0.59534214226E+02  0.74470750000E+01 0. -1.
<mgrwt>
<rscale>  0 0.14905778E+02</rscale>
<asrwt>0</asrwt>
<pdfrwt beam="2">  1        2 0.99578772E+00 0.14905778E+02</pdfrwt>
<pdfrwt beam="1">  1       -2 0.98343783E+00 0.14905778E+02</pdfrwt>
<totfact> 0.65774474E-13</totfact>
</mgrwt>
</event>
<event>
 4    1 -0.5010510E-019  0.1496927E+02  0.7818608E-02  0.1869008E+00
          2   -1    0    0  501    0  0.00000000000E+00  0.00000000000E+00  0.11979282492E+03  0.11979282494E+03  0.25500000000E-02 0. -1.
         -2   -1    0    0    0  501 -0.00000000000E+00 -0.00000000000E+00 -0.46763492552E+00  0.46764187800E+00  0.25500000000E-02 0.  1.
         31    1    1    2    0    0  0.19649321505E+00  0.68107899509E+00  0.57722393596E+02  0.58205121138E+02  0.74470750000E+01 0.  1.
        -31    1    1    2    0    0 -0.19649321505E+00 -0.68107899509E+00  0.61602796396E+02  0.62055345685E+02  0.74470750000E+01 0. -1.
<mgrwt>
<rscale>  0 0.14969266E+02</rscale>
<asrwt>0</asrwt>
<pdfrwt beam="1">  1        2 0.99439768E+00 0.14969266E+02</pdfrwt>
<pdfrwt beam="2">  1       -2 0.99321958E+00 0.14969266E+02</pdfrwt>
<totfact>-0.11367367E-13</totfact>
</mgrwt>
</event>
<event>
 4    1 -0.5010510E-019  0.1499389E+02  0.7818608E-02  0.1868255E+00
          2   -1    0    0  501    0  0.00000000000E+00  0.00000000000E+00  0.11976139995E+03  0.11976139998E+03  0.25500000000E-02 0. -1.
         -2   -1    0    0    0  501 -0.00000000000E+00 -0.00000000000E+00 -0.46929814028E+00  0.46930506813E+00  0.25500000000E-02 0.  1.
         31    1    1    2    0    0  0.32839819217E-01  0.79887017896E+00  0.62257006906E+02  0.62705925613E+02  0.74470750000E+01 0.  1.
        -31    1    1    2    0    0 -0.32839819217E-01 -0.79887017896E+00  0.57035094905E+02  0.57524779434E+02  0.74470750000E+01 0. -1.
<mgrwt>
<rscale>  0 0.14993895E+02</rscale>
<asrwt>0</asrwt>
<pdfrwt beam="1">  1        2 0.99415159E+00 0.14993895E+02</pdfrwt>
<pdfrwt beam="2">  1       -2 0.99673726E+00 0.14993895E+02</pdfrwt>
<totfact>-0.10890949E-13</totfact>
</mgrwt>
</event>
<event>
 4    1  0.5010510E-019  0.1491966E+02  0.7818608E-02  0.1870530E+00
          2   -1    0    0  501    0  0.00000000000E+00  0.00000000000E+00  0.12014524955E+03  0.12014524958E+03  0.25500000000E-02 0.  1.
         -2   -1    0    0    0  501 -0.00000000000E+00 -0.00000000000E+00 -0.46317775933E+00  0.46318477872E+00  0.25500000000E-02 0. -1.
         31    1    1    2    0    0 -0.72212503450E-01  0.37083383013E+00  0.58081537743E+02  0.58558233281E+02  0.74470750000E+01 0. -1.
        -31    1    1    2    0    0  0.72212503450E-01 -0.37083383013E+00  0.61600534049E+02  0.62050201076E+02  0.74470750000E+01 0. -1.
<mgrwt>
<rscale>  0 0.14919656E+02</rscale>
<asrwt>0</asrwt>
<pdfrwt beam="1">  1        2 0.99727492E+00 0.14919656E+02</pdfrwt>
<pdfrwt beam="2">  1       -2 0.98380063E+00 0.14919656E+02</pdfrwt>
<totfact> 0.45777645E-13</totfact>
</mgrwt>
</event>
<event>
 4    1 -0.5010510E-019  0.1491301E+02  0.7818608E-02  0.1870735E+00
         -2   -1    0    0    0  501 -0.00000000000E+00  0.00000000000E+00  0.11964782636E+03  0.11964782638E+03  0.25500000000E-02 0.  1.
          2   -1    0    0  501    0  0.00000000000E+00 -0.00000000000E+00 -0.46468911460E+00  0.46469611116E+00  0.25500000000E-02 0. -1.
         31    1    1    2    0    0 -0.14469889441E+00 -0.26469411339E+00  0.57798940984E+02  0.58277504285E+02  0.74470750000E+01 0. -1.
        -31    1    1    2    0    0  0.14469889441E+00  0.26469411339E+00  0.61384196257E+02  0.61835018209E+02  0.74470750000E+01 0.  1.
<mgrwt>
<rscale>  0 0.14913010E+02</rscale>
<asrwt>0</asrwt>
<pdfrwt beam="2">  1        2 0.98698256E+00 0.14913010E+02</pdfrwt>
<pdfrwt beam="1">  1       -2 0.99317437E+00 0.14913010E+02</pdfrwt>
<totfact>-0.22901836E-13</totfact>
</mgrwt>
</event>
<event>
 4    1 -0.5010510E-019  0.1494546E+02  0.7818608E-02  0.1869737E+00
         -2   -1    0    0    0  501 -0.00000000000E+00  0.00000000000E+00  0.11999972660E+03  0.11999972663E+03  0.25500000000E-02 0. -1.
          2   -1    0    0  501    0  0.00000000000E+00 -0.00000000000E+00 -0.46534529145E+00  0.46535227815E+00  0.25500000000E-02 0.  1.
         31    1    1    2    0    0  0.39046632527E+00 -0.47987542982E+00  0.59704873443E+02  0.60170703696E+02  0.74470750000E+01 0. -1.
        -31    1    1    2    0    0 -0.39046632527E+00  0.47987542982E+00  0.59829507869E+02  0.60294375212E+02  0.74470750000E+01 0.  1.
<mgrwt>
<rscale>  0 0.14945465E+02</rscale>
<asrwt>0</asrwt>
<pdfrwt beam="2">  1        2 0.98838206E+00 0.14945465E+02</pdfrwt>
<pdfrwt beam="1">  1       -2 0.99608956E+00 0.14945465E+02</pdfrwt>
<totfact>-0.19773380E-13</totfact>
</mgrwt>
</event>
<event>
 4    1  0.5010510E-019  0.1492008E+02  0.7818608E-02  0.1870517E+00
         -2   -1    0    0    0  501 -0.00000000000E+00  0.00000000000E+00  0.11869650808E+03  0.11869650811E+03  0.25500000000E-02 0.  1.
          2   -1    0    0  501    0  0.00000000000E+00 -0.00000000000E+00 -0.46885793325E+00  0.46886486760E+00  0.25500000000E-02 0. -1.
         31    1    1    2    0    0 -0.29323954942E+00  0.30456064885E+00  0.60076954608E+02  0.60538237071E+02  0.74470750000E+01 0.  1.
        -31    1    1    2    0    0  0.29323954942E+00 -0.30456064885E+00  0.58150695537E+02  0.58627135902E+02  0.74470750000E+01 0. -1.
<mgrwt>
<rscale>  0 0.14920082E+02</rscale>
<asrwt>0</asrwt>
<pdfrwt beam="2">  1        2 0.99577113E+00 0.14920082E+02</pdfrwt>
<pdfrwt beam="1">  1       -2 0.98534268E+00 0.14920082E+02</pdfrwt>
<totfact> 0.40094371E-13</totfact>
</mgrwt>
</event>
<event>
 4    1 -0.5010510E-019  0.1500418E+02  0.7818608E-02  0.1867941E+00
         -2   -1    0    0    0  501 -0.00000000000E+00  0.00000000000E+00  0.11971399481E+03  0.11971399483E+03  0.25500000000E-02 0. -1.
          2   -1    0    0  501    0  0.00000000000E+00 -0.00000000000E+00 -0.47012835315E+00  0.47013526877E+00  0.25500000000E-02 0.  1.
         31    1    1    2    0    0 -0.47077845183E+00 -0.28870026271E-01  0.65826323059E+02  0.66247914679E+02  0.74470750000E+01 0. -1.
        -31    1    1    2    0    0  0.47077845183E+00  0.28870026271E-01  0.53417543394E+02  0.53936215423E+02  0.74470750000E+01 0.  1.
<mgrwt>
<rscale>  0 0.15004181E+02</rscale>
<asrwt>0</asrwt>
<pdfrwt beam="2">  1        2 0.99849207E+00 0.15004181E+02</pdfrwt>
<pdfrwt beam="1">  1       -2 0.99376648E+00 0.15004181E+02</pdfrwt>
<totfact>-0.50105297E-14</totfact>
</mgrwt>
</event>
<event>
 4    1 -0.5010510E-019  0.1497137E+02  0.7818608E-02  0.1868943E+00
         -2   -1    0    0    0  501 -0.00000000000E+00  0.00000000000E+00  0.12008243724E+03  0.12008243727E+03  0.25500000000E-02 0. -1.
          2   -1    0    0  501    0  0.00000000000E+00 -0.00000000000E+00 -0.46663833816E+00  0.46664530549E+00  0.25500000000E-02 0.  1.
         31    1    1    2    0    0 -0.35367280609E+00 -0.43156350990E+00  0.55661070919E+02  0.56159817249E+02  0.74470750000E+01 0.  1.
        -31    1    1    2    0    0  0.35367280609E+00  0.43156350990E+00  0.63954727985E+02  0.64389265326E+02  0.74470750000E+01 0. -1.
<mgrwt>
<rscale>  0 0.14971371E+02</rscale>
<asrwt>0</asrwt>
<pdfrwt beam="2">  1        2 0.99112042E+00 0.14971371E+02</pdfrwt>
<pdfrwt beam="1">  1       -2 0.99678416E+00 0.14971371E+02</pdfrwt>
<totfact>-0.13547594E-13</totfact>
</mgrwt>
</event>
<event>
 4    1 -0.5010510E-019  0.1493324E+02  0.7818608E-02  0.1870112E+00
         -2   -1    0    0    0  501 -0.00000000000E+00  0.00000000000E+00  0.11951916873E+03  0.11951916876E+03  0.25500000000E-02 0. -1.
          2   -1    0    0  501    0  0.00000000000E+00 -0.00000000000E+00 -0.46645245357E+00  0.46645942368E+00  0.25500000000E-02 0.  1.
         31    1    1    2    0    0 -0.46069229190E+00  0.61908866635E-01  0.61733123813E+02  0.62182421727E+02  0.74470750000E+01 0. -1.
        -31    1    1    2    0    0  0.46069229190E+00 -0.61908866635E-01  0.57319592464E+02  0.57803206454E+02  0.74470750000E+01 0.  1.
<mgrwt>
<rscale>  0 0.14933242E+02</rscale>
<asrwt>0</asrwt>
<pdfrwt beam="2">  1        2 0.99070908E+00 0.14933242E+02</pdfrwt>
<pdfrwt beam="1">  1       -2 0.99212512E+00 0.14933242E+02</pdfrwt>
<totfact>-0.11591913E-13</totfact>
</mgrwt>
</event>
<event>
 4    1 -0.5010510E-019  0.1499349E+02  0.7818608E-02  0.1868267E+00
         -2   -1    0    0    0  501 -0.00000000000E+00  0.00000000000E+00  0.12010234161E+03  0.12010234163E+03  0.25500000000E-02 0.  1.
          2   -1    0    0  501    0  0.00000000000E+00 -0.00000000000E+00 -0.46794078956E+00  0.46794773751E+00  0.25500000000E-02 0. -1.
         31    1    1    2    0    0  0.21625752525E+00 -0.65958118662E+00  0.55713160024E+02  0.56212960611E+02  0.74470750000E+01 0. -1.
        -31    1    1    2    0    0 -0.21625752525E+00  0.65958118662E+00  0.63921240792E+02  0.64357328760E+02  0.74470750000E+01 0.  1.
<mgrwt>
<rscale>  0 0.14993493E+02</rscale>
<asrwt>0</asrwt>
<pdfrwt beam="2">  1        2 0.99387664E+00 0.14993493E+02</pdfrwt>
<pdfrwt beam="1">  1       -2 0.99695951E+00 0.14993493E+02</pdfrwt>
<totfact>-0.10660104E-13</totfact>
</mgrwt>
</event>
<event>
 4    1 -0.5010510E-019  0.1490676E+02  0.7818608E-02  0.1870927E+00
          2   -1    0    0  501    0  0.00000000000E+00  0.00000000000E+00  0.11887084750E+03  0.11887084753E+03  0.25500000000E-02 0.  1.
         -2   -1    0    0    0  501 -0.00000000000E+00 -0.00000000000E+00 -0.46733442562E+00  0.46734138258E+00  0.25500000000E-02 0. -1.
         31    1    1    2    0    0  0.92590850877E-01 -0.27918259272E+00  0.59891076666E+02  0.60353015718E+02  0.74470750000E+01 0.  1.
        -31    1    1    2    0    0 -0.92590850877E-01  0.27918259272E+00  0.58512436410E+02  0.58985173194E+02  0.74470750000E+01 0.  1.
<mgrwt>
<rscale>  0 0.14906758E+02</rscale>
<asrwt>0</asrwt>
<pdfrwt beam="1">  1        2 0.98677164E+00 0.14906758E+02</pdfrwt>
<pdfrwt beam="2">  1       -2 0.99255391E+00 0.14906758E+02</pdfrwt>
<totfact>-0.20806201E-13</totfact>
</mgrwt>
</event>
<event>
 4    1  0.5010510E-019  0.1492981E+02  0.7818608E-02  0.1870218E+00
          2   -1    0    0  501    0  0.00000000000E+00  0.00000000000E+00  0.12041624958E+03  0.12041624961E+03  0.25500000000E-02 0. -1.
         -2   -1    0    0    0  501 -0.00000000000E+00 -0.00000000000E+00 -0.46276483620E+00  0.46277186186E+00  0.25500000000E-02 0.  1.
         31    1    1    2    0    0 -0.47225439785E+00  0.13119612377E+00  0.58679545417E+02  0.59152246052E+02  0.74470750000E+01 0.  1.
        -31    1    1    2    0    0  0.47225439785E+00 -0.13119612377E+00  0.61273939329E+02  0.61726775418E+02  0.74470750000E+01 0. -1.
<mgrwt>
<rscale>  0 0.14929813E+02</rscale>
<asrwt>0</asrwt>
<pdfrwt beam="1">  1        2 0.99951232E+00 0.14929813E+02</pdfrwt>
<pdfrwt beam="2">  1       -2 0.98293543E+00 0.14929813E+02</pdfrwt>
<totfact> 0.12789718E-13</totfact>
</mgrwt>
</event>
<event>
 4    1 -0.5010510E-019  0.1498394E+02  0.7818608E-02  0.1868559E+00
         -2   -1    0    0    0  501 -0.00000000000E+00  0.00000000000E+00  0.11961491520E+03  0.11961491523E+03  0.25500000000E-02 0.  1.
          2   -1    0    0  501    0  0.00000000000E+00 -0.00000000000E+00 -0.46924919720E+00  0.46925612577E+00  0.25500000000E-02 0. -1.
         31    1    1    2    0    0 -0.62219028311E+00 -0.38751662483E+00  0.56645681695E+02  0.57137811217E+02  0.74470750000E+01 0.  1.
        -31    1    1    2    0    0  0.62219028311E+00  0.38751662483E+00  0.62499984312E+02  0.62946360141E+02  0.74470750000E+01 0. -1.
<mgrwt>
<rscale>  0 0.14983941E+02</rscale>
<asrwt>0</asrwt>
<pdfrwt beam="2">  1        2 0.99662895E+00 0.14983941E+02</pdfrwt>
<pdfrwt beam="1">  1       -2 0.99293995E+00 0.14983941E+02</pdfrwt>
<totfact>-0.81552178E-14</totfact>
</mgrwt>
</event>
<event>
 4    1 -0.5010510E-019  0.1497038E+02  0.7818608E-02  0.1868974E+00
          2   -1    0    0  501    0  0.00000000000E+00  0.00000000000E+00  0.11981928034E+03  0.11981928037E+03  0.25500000000E-02 0. -1.
         -2   -1    0    0    0  501 -0.00000000000E+00 -0.00000000000E+00 -0.46760146337E+00  0.46760841635E+00  0.25500000000E-02 0.  1.
         31    1    1    2    0    0 -0.40858249721E+00  0.13322990497E+00  0.54693661006E+02  0.55200001541E+02  0.74470750000E+01 0.  1.
        -31    1    1    2    0    0  0.40858249721E+00 -0.13322990497E+00  0.64658017873E+02  0.65086887245E+02  0.74470750000E+01 0. -1.
<mgrwt>
<rscale>  0 0.14970383E+02</rscale>
<asrwt>0</asrwt>
<pdfrwt beam="1">  1        2 0.99461616E+00 0.14970383E+02</pdfrwt>
<pdfrwt beam="2">  1       -2 0.99314964E+00 0.14970383E+02</pdfrwt>
<totfact>-0.11023945E-13</totfact>
</mgrwt>
</event>
<event>
 4    1 -0.5010510E-019  0.1492502E+02  0.7818608E-02  0.1870365E+00
          2   -1    0    0  501    0  0.00000000000E+00  0.00000000000E+00  0.11860386424E+03  0.11860386427E+03  0.25500000000E-02 0.  1.
         -2   -1    0    0    0  501 -0.00000000000E+00 -0.00000000000E+00 -0.46953472551E+00  0.46954164987E+00  0.25500000000E-02 0. -1.
         31    1    1    2    0    0  0.21667970627E+00 -0.19593237417E+00  0.56031486116E+02  0.56524965299E+02  0.74470750000E+01 0. -1.
        -31    1    1    2    0    0 -0.21667970627E+00  0.19593237417E+00  0.62102843398E+02  0.62548440618E+02  0.74470750000E+01 0.  1.
<mgrwt>
<rscale>  0 0.14925019E+02</rscale>
<asrwt>0</asrwt>
<pdfrwt beam="1">  1        2 0.98458223E+00 0.14925019E+02</pdfrwt>
<pdfrwt beam="2">  1       -2 0.99719976E+00 0.14925019E+02</pdfrwt>
<totfact>-0.28429228E-13</totfact>
</mgrwt>
</event>
<event>
 4    1  0.5010510E-019  0.1490804E+02  0.7818608E-02  0.1870888E+00
         -2   -1    0    0    0  501 -0.00000000000E+00  0.00000000000E+00  0.11867502922E+03  0.11867502925E+03  0.25500000000E-02 0.  1.
          2   -1    0    0  501    0  0.00000000000E+00 -0.00000000000E+00 -0.46818612558E+00  0.46819306988E+00  0.25500000000E-02 0. -1.
         31    1    1    2    0    0 -0.49611575798E-01  0.67531156518E-01  0.61585663351E+02  0.62034344344E+02  0.74470750000E+01 0.  1.
        -31    1    1    2    0    0  0.49611575798E-01 -0.67531156518E-01  0.56621179748E+02  0.57108877978E+02  0.74470750000E+01 0. -1.
<mgrwt>
<rscale>  0 0.14908040E+02</rscale>
<asrwt>0</asrwt>
<pdfrwt beam="2">  1        2 0.99434925E+00 0.14908040E+02</pdfrwt>
<pdfrwt beam="1">  1       -2 0.98515952E+00 0.14908040E+02</pdfrwt>
<totfact> 0.49252483E-13</totfact>
</mgrwt>
</event>
<event>
 4    1  0.5010510E-019  0.1490126E+02  0.7818608E-02  0.1871096E+00
          2   -1    0    0  501    0  0.00000000000E+00  0.00000000000E+00  0.11910763803E+03  0.11910763806E+03  0.25500000000E-02 0.  1.
         -2   -1    0    0    0  501 -0.00000000000E+00 -0.00000000000E+00 -0.46606165208E+00  0.46606862804E+00  0.25500000000E-02 0. -1.
         31    1    1    2    0    0  0.14191804940E+00  0.83727027368E-01  0.60610802617E+02  0.61066811533E+02  0.74470750000E+01 0.  1.
        -31    1    1    2    0    0 -0.14191804940E+00 -0.83727027368E-01  0.58030773759E+02  0.58506895150E+02  0.74470750000E+01 0. -1.
<mgrwt>
<rscale>  0 0.14901265E+02</rscale>
<asrwt>0</asrwt>
<pdfrwt beam="1">  1        2 0.98871907E+00 0.14901265E+02</pdfrwt>
<pdfrwt beam="2">  1       -2 0.98986900E+00 0.14901265E+02</pdfrwt>
<totfact> 0.27283854E-14</totfact>
</mgrwt>
</event>
<event>
 4    1 -0.5010510E-019  0.1492959E+02  0.7818608E-02  0.1870225E+00
          2   -1    0    0  501    0  0.00000000000E+00  0.00000000000E+00  0.11871114195E+03  0.11871114198E+03  0.25500000000E-02 0.  1.
         -2   -1    0    0    0  501 -0.00000000000E+00 -0.00000000000E+00 -0.46939794387E+00  0.46940487024E+00  0.25500000000E-02 0. -1.
         31    1    1    2    0    0  0.33241075459E+00  0.26336404829E+00  0.61439976140E+02  0.61891109634E+02  0.74470750000E+01 0.  1.
        -31    1    1    2    0    0 -0.33241075459E+00 -0.26336404829E+00  0.56801767864E+02  0.57289437212E+02  0.74470750000E+01 0.  1.
<mgrwt>
<rscale>  0 0.14929592E+02</rscale>
<asrwt>0</asrwt>
<pdfrwt beam="1">  1        2 0.98546815E+00 0.14929592E+02</pdfrwt>
<pdfrwt beam="2">  1       -2 0.99691396E+00 0.14929592E+02</pdfrwt>
<totfact>-0.26265016E-13</totfact>
</mgrwt>
</event>
<event>
 4    1  0.5010510E-019  0.1491745E+02  0.7818608E-02  0.1870598E+00
         -2   -1    0    0    0  501 -0.00000000000E+00  0.00000000000E+00  0.11843603551E+03  0.11843603554E+03  0.25500000000E-02 0. -1.
          2   -1    0    0  501    0  0.00000000000E+00 -0.00000000000E+00 -0.46972314070E+00  0.46973006228E+00  0.25500000000E-02 0.  1.
         31    1    1    2    0    0  0.85757139411E-01 -0.40301476930E+00  0.59478282094E+02  0.59944096808E+02  0.74470750000E+01 0. -1.
        -31    1    1    2    0    0 -0.85757139411E-01  0.40301476930E+00  0.58488030274E+02  0.58961668791E+02  0.74470750000E+01 0. -1.
<mgrwt>
<rscale>  0 0.14917447E+02</rscale>
<asrwt>0</asrwt>
<pdfrwt beam="2">  1        2 0.99759276E+00 0.14917447E+02</pdfrwt>
<pdfrwt beam="1">  1       -2 0.98319606E+00 0.14917447E+02</pdfrwt>
<totfact> 0.48187757E-13</totfact>
</mgrwt>
</event>
<event>
 4    1  0.5010510E-019  0.1492589E+02  0.7818608E-02  0.1870339E+00
          2   -1    0    0  501    0  0.00000000000E+00  0.00000000000E+00  0.11991069099E+03  0.11991069102E+03  0.25500000000E-02 0. -1.
         -2   -1    0    0    0  501 -0.00000000000E+00 -0.00000000000E+00 -0.46447149638E+00  0.46447849622E+00  0.25500000000E-02 0.  1.
         31    1    1    2    0    0  0.28418535030E+00  0.38639713507E+00  0.59071356515E+02  0.59540861185E+02  0.74470750000E+01 0.  1.
        -31    1    1    2    0    0 -0.28418535030E+00 -0.38639713507E+00  0.60374862978E+02  0.60834308328E+02  0.74470750000E+01 0. -1.
<mgrwt>
<rscale>  0 0.14925886E+02</rscale>
<asrwt>0</asrwt>
<pdfrwt beam="1">  1        2 0.99534612E+00 0.14925886E+02</pdfrwt>
<pdfrwt beam="2">  1       -2 0.98653050E+00 0.14925886E+02</pdfrwt>
<totfact> 0.28477298E-13</totfact>
</mgrwt>
</event>
<event>
 4    1 -0.5010510E-019  0.1491272E+02  0.7818608E-02  0.1870744E+00
         -2   -1    0    0    0  501 -0.00000000000E+00  0.00000000000E+00  0.12034203430E+03  0.12034203433E+03  0.25500000000E-02 0. -1.
          2   -1    0    0  501    0  0.00000000000E+00 -0.00000000000E+00 -0.46199038272E+00  0.46199742015E+00  0.25500000000E-02 0.  1.
         31    1    1    2    0    0  0.13910693183E+00 -0.26032758078E+00  0.61773760618E+02  0.62221728906E+02  0.74470750000E+01 0. -1.
        -31    1    1    2    0    0 -0.13910693183E+00  0.26032758078E+00  0.58106283302E+02  0.58582302843E+02  0.74470750000E+01 0.  1.
<mgrwt>
<rscale>  0 0.14912718E+02</rscale>
<asrwt>0</asrwt>
<pdfrwt beam="2">  1        2 0.98129446E+00 0.14912718E+02</pdfrwt>
<pdfrwt beam="1">  1       -2 0.99889226E+00 0.14912718E+02</pdfrwt>
<totfact>-0.23043405E-13</totfact>
</mgrwt>
</event>
<event>
 4    1 -0.5010510E-019  0.1491347E+02  0.7818608E-02  0.1870720E+00
          2   -1    0    0  501    0  0.00000000000E+00  0.00000000000E+00  0.11829934262E+03  0.11829934265E+03  0.25500000000E-02 0. -1.
         -2   -1    0    0    0  501 -0.00000000000E+00 -0.00000000000E+00 -0.47001532783E+00  0.47002224511E+00  0.25500000000E-02 0.  1.
         31    1    1    2    0    0  0.34431671066E+00 -0.12277118211E+00  0.58103913095E+02  0.58580348836E+02  0.74470750000E+01 0.  1.
        -31    1    1    2    0    0 -0.34431671066E+00  0.12277118211E+00  0.59725414197E+02  0.60189016056E+02  0.74470750000E+01 0.  1.
<mgrwt>
<rscale>  0 0.14913473E+02</rscale>
<asrwt>0</asrwt>
<pdfrwt beam="1">  1        2 0.98206821E+00 0.14913473E+02</pdfrwt>
<pdfrwt beam="2">  1       -2 0.99820628E+00 0.14913473E+02</pdfrwt>
<totfact>-0.30815885E-13</totfact>
</mgrwt>
</event>
<event>
 4    1 -0.5010510E-019  0.1491348E+02  0.7818608E-02  0.1870720E+00
          2   -1    0    0  501    0  0.00000000000E+00  0.00000000000E+00  0.11856898939E+03  0.11856898942E+03  0.25500000000E-02 0.  1.
         -2   -1    0    0    0  501 -0.00000000000E+00 -0.00000000000E+00 -0.46894687096E+00  0.46895380399E+00  0.25500000000E-02 0. -1.
         31    1    1    2    0    0  0.37696074095E+00 -0.32876391972E-01  0.59284712759E+02  0.59751813974E+02  0.74470750000E+01 0.  1.
        -31    1    1    2    0    0 -0.37696074095E+00  0.32876391972E-01  0.58815329761E+02  0.59286129248E+02  0.74470750000E+01 0.  1.
<mgrwt>
<rscale>  0 0.14913480E+02</rscale>
<asrwt>0</asrwt>
<pdfrwt beam="1">  1        2 0.98428900E+00 0.14913480E+02</pdfrwt>
<pdfrwt beam="2">  1       -2 0.99595505E+00 0.14913480E+02</pdfrwt>
<totfact>-0.36779241E-13</totfact>
</mgrwt>
</event>
<event>
 4    1 -0.5010510E-019  0.1498451E+02  0.7818608E-02  0.1868542E+00
          2   -1    0    0  501    0  0.00000000000E+00  0.00000000000E+00  0.11971953344E+03  0.11971953347E+03  0.25500000000E-02 0.  1.
         -2   -1    0    0    0  501 -0.00000000000E+00 -0.00000000000E+00 -0.46887465914E+00  0.46888159325E+00  0.25500000000E-02 0. -1.
         31    1    1    2    0    0 -0.36293675525E+00 -0.28011651364E+00  0.54157257971E+02  0.54668800109E+02  0.74470750000E+01 0. -1.
        -31    1    1    2    0    0  0.36293675525E+00  0.28011651364E+00  0.65093400809E+02  0.65519614951E+02  0.74470750000E+01 0.  1.
<mgrwt>
<rscale>  0 0.14984509E+02</rscale>
<asrwt>0</asrwt>
<pdfrwt beam="1">  1        2 0.99380191E+00 0.14984509E+02</pdfrwt>
<pdfrwt beam="2">  1       -2 0.99583999E+00 0.14984509E+02</pdfrwt>
<totfact>-0.12653180E-13</totfact>
</mgrwt>
</event>
<event>
 4    1 -0.5010510E-019  0.1498838E+02  0.7818608E-02  0.1868423E+00
         -2   -1    0    0    0  501 -0.00000000000E+00  0.00000000000E+00  0.11963701364E+03  0.11963701366E+03  0.25500000000E-02 0. -1.
          2   -1    0    0  501    0  0.00000000000E+00 -0.00000000000E+00 -0.46944075744E+00  0.46944768318E+00  0.25500000000E-02 0.  1.
         31    1    1    2    0    0 -0.11361503035E+00  0.47919137312E+00  0.65027226652E+02  0.65454118777E+02  0.74470750000E+01 0. -1.
        -31    1    1    2    0    0  0.11361503035E+00 -0.47919137312E+00  0.54140346226E+02  0.54652342569E+02  0.74470750000E+01 0.  1.
<mgrwt>
<rscale>  0 0.14988383E+02</rscale>
<asrwt>0</asrwt>
<pdfrwt beam="2">  1        2 0.99703492E+00 0.14988383E+02</pdfrwt>
<pdfrwt beam="1">  1       -2 0.99312426E+00 0.14988383E+02</pdfrwt>
<totfact>-0.77435480E-14</totfact>
</mgrwt>
</event>
<event>
 4    1  0.5010510E-019  0.1495480E+02  0.7818608E-02  0.1869451E+00
         -2   -1    0    0    0  501 -0.00000000000E+00  0.00000000000E+00  0.11878138977E+03  0.11878138979E+03  0.25500000000E-02 0. -1.
          2   -1    0    0  501    0  0.00000000000E+00 -0.00000000000E+00 -0.47070586369E+00  0.47071277082E+00  0.25500000000E-02 0.  1.
         31    1    1    2    0    0  0.12142861882E+00  0.34564370110E-01  0.64424599466E+02  0.64853711397E+02  0.74470750000E+01 0. -1.
        -31    1    1    2    0    0 -0.12142861882E+00 -0.34564370110E-01  0.53886084437E+02  0.54398391168E+02  0.74470750000E+01 0.  1.
<mgrwt>
<rscale>  0 0.14954800E+02</rscale>
<asrwt>0</asrwt>
<pdfrwt beam="2">  1        2 0.99968306E+00 0.14954800E+02</pdfrwt>
<pdfrwt beam="1">  1       -2 0.98605982E+00 0.14954800E+02</pdfrwt>
<totfact> 0.36654556E-14</totfact>
</mgrwt>
</event>
<event>
 4    1  0.5010510E-019  0.1492481E+02  0.7818608E-02  0.1870372E+00
         -2   -1    0    0    0  501 -0.00000000000E+00  0.00000000000E+00  0.11863713100E+03  0.11863713103E+03  0.25500000000E-02 0. -1.
          2   -1    0    0  501    0  0.00000000000E+00 -0.00000000000E+00 -0.46938973736E+00  0.46939666385E+00  0.25500000000E-02 0.  1.
         31    1    1    2    0    0  0.28454352129E-01  0.19236109100E+00  0.55598625108E+02  0.56095488699E+02  0.74470750000E+01 0. -1.
        -31    1    1    2    0    0 -0.28454352129E-01 -0.19236109100E+00  0.62569116156E+02  0.63011038993E+02  0.74470750000E+01 0. -1.
<mgrwt>
<rscale>  0 0.14924807E+02</rscale>
<asrwt>0</asrwt>
<pdfrwt beam="2">  1        2 0.99689415E+00 0.14924807E+02</pdfrwt>
<pdfrwt beam="1">  1       -2 0.98485611E+00 0.14924807E+02</pdfrwt>
<totfact> 0.38135760E-13</totfact>
</mgrwt>
</event>
<event>
 4    1  0.5010510E-019  0.1493728E+02  0.7818608E-02  0.1869989E+00
         -2   -1    0    0    0  501 -0.00000000000E+00  0.00000000000E+00  0.11895048374E+03  0.11895048376E+03  0.25500000000E-02 0.  1.
          2   -1    0    0  501    0  0.00000000000E+00 -0.00000000000E+00 -0.46893583955E+00  0.46894277275E+00  0.25500000000E-02 0. -1.
         31    1    1    2    0    0  0.44540761078E+00  0.33742319854E+00  0.58465980018E+02  0.58941004300E+02  0.74470750000E+01 0. -1.
        -31    1    1    2    0    0 -0.44540761078E+00 -0.33742319854E+00  0.60015567878E+02  0.60478422236E+02  0.74470750000E+01 0.  1.
<mgrwt>
<rscale>  0 0.14937277E+02</rscale>
<asrwt>0</asrwt>
<pdfrwt beam="2">  1        2 0.99594430E+00 0.14937277E+02</pdfrwt>
<pdfrwt beam="1">  1       -2 0.98744337E+00 0.14937277E+02</pdfrwt>
<totfact> 0.18008868E-13</totfact>
</mgrwt>
</event>
<event>
 4    1  0.5010510E-019  0.1490550E+02  0.7818608E-02  0.1870966E+00
         -2   -1    0    0    0  501 -0.00000000000E+00  0.00000000000E+00  0.11814382181E+03  0.11814382183E+03  0.25500000000E-02 0.  1.
          2   -1    0    0  501    0  0.00000000000E+00 -0.00000000000E+00 -0.47013107442E+00  0.47013798999E+00  0.25500000000E-02 0. -1.
         31    1    1    2    0    0 -0.28118640486E+00  0.18148936899E-01  0.58264528962E+02  0.58739200338E+02  0.74470750000E+01 0.  1.
        -31    1    1    2    0    0  0.28118640486E+00 -0.18148936899E-01  0.59409161771E+02  0.59874759487E+02  0.74470750000E+01 0.  1.
<mgrwt>
<rscale>  0 0.14905501E+02</rscale>
<asrwt>0</asrwt>
<pdfrwt beam="2">  1        2 0.99844592E+00 0.14905501E+02</pdfrwt>
<pdfrwt beam="1">  1       -2 0.98078321E+00 0.14905501E+02</pdfrwt>
<totfact> 0.55358484E-13</totfact>
</mgrwt>
</event>
<event>
 4    1  0.5010510E-019  0.1491749E+02  0.7818608E-02  0.1870597E+00
          2   -1    0    0  501    0  0.00000000000E+00  0.00000000000E+00  0.11989311641E+03  0.11989311644E+03  0.25500000000E-02 0.  1.
         -2   -1    0    0    0  501 -0.00000000000E+00 -0.00000000000E+00 -0.46401706437E+00  0.46402407107E+00  0.25500000000E-02 0. -1.
         31    1    1    2    0    0  0.22906630117E+00 -0.13159798921E+00  0.62318460220E+02  0.62762402756E+02  0.74470750000E+01 0.  1.
        -31    1    1    2    0    0 -0.22906630117E+00  0.13159798921E+00  0.57110639124E+02  0.57594737751E+02  0.74470750000E+01 0. -1.
<mgrwt>
<rscale>  0 0.14917490E+02</rscale>
<asrwt>0</asrwt>
<pdfrwt beam="1">  1        2 0.99519705E+00 0.14917490E+02</pdfrwt>
<pdfrwt beam="2">  1       -2 0.98556847E+00 0.14917490E+02</pdfrwt>
<totfact> 0.40127793E-13</totfact>
</mgrwt>
</event>
<event>
 4    1 -0.5010510E-019  0.1500170E+02  0.7818608E-02  0.1868016E+00
          2   -1    0    0  501    0  0.00000000000E+00  0.00000000000E+00  0.11993014710E+03  0.11993014713E+03  0.25500000000E-02 0. -1.
         -2   -1    0    0    0  501 -0.00000000000E+00 -0.00000000000E+00 -0.46912611779E+00  0.46913304818E+00  0.25500000000E-02 0.  1.
         31    1    1    2    0    0 -0.41683329534E-01 -0.37967552772E+00  0.66240571297E+02  0.66658968660E+02  0.74470750000E+01 0. -1.
        -31    1    1    2    0    0  0.41683329534E-01  0.37967552772E+00  0.53220449684E+02  0.53740311514E+02  0.74470750000E+01 0.  1.
<mgrwt>
<rscale>  0 0.15001704E+02</rscale>
<asrwt>0</asrwt>
<pdfrwt beam="1">  1        2 0.99554549E+00 0.15001704E+02</pdfrwt>
<pdfrwt beam="2">  1       -2 0.99637880E+00 0.15001704E+02</pdfrwt>
<totfact>-0.10040684E-13</totfact>
</mgrwt>
</event>
<event>
 4    1 -0.5010510E-019  0.1497226E+02  0.7818608E-02  0.1868916E+00
          2   -1    0    0  501    0  0.00000000000E+00  0.00000000000E+00  0.11929458606E+03  0.11929458608E+03  0.25500000000E-02 0. -1.
         -2   -1    0    0    0  501 -0.00000000000E+00 -0.00000000000E+00 -0.46977601675E+00  0.46978293755E+00  0.25500000000E-02 0.  1.
         31    1    1    2    0    0  0.17942734948E+00 -0.38610458786E+00  0.54340995242E+02  0.54850560260E+02  0.74470750000E+01 0.  1.
        -31    1    1    2    0    0 -0.17942734948E+00  0.38610458786E+00  0.64483814797E+02  0.64913808760E+02  0.74470750000E+01 0. -1.
<mgrwt>
<rscale>  0 0.14972261E+02</rscale>
<asrwt>0</asrwt>
<pdfrwt beam="1">  1        2 0.99029560E+00 0.14972261E+02</pdfrwt>
<pdfrwt beam="2">  1       -2 0.99773298E+00 0.14972261E+02</pdfrwt>
<totfact>-0.11396303E-13</totfact>
</mgrwt>
</event>
<event>
 4    1 -0.5010510E-019  0.1490549E+02  0.7818608E-02  0.1870966E+00
          2   -1    0    0  501    0  0.00000000000E+00  0.00000000000E+00  0.11833013696E+03  0.11833013699E+03  0.25500000000E-02 0. -1.
         -2   -1    0    0    0  501 -0.00000000000E+00 -0.00000000000E+00 -0.46938988811E+00  0.46939681461E+00  0.25500000000E-02 0.  1.
         31    1    1    2    0    0  0.23807818633E+00 -0.14595016119E+00  0.59571668481E+02  0.60035994156E+02  0.74470750000E+01 0. -1.
        -31    1    1    2    0    0 -0.23807818633E+00  0.14595016119E+00  0.58289078595E+02  0.58763539650E+02  0.74470750000E+01 0. -1.
<mgrwt>
<rscale>  0 0.14905487E+02</rscale>
<asrwt>0</asrwt>
<pdfrwt beam="1">  1        2 0.98231767E+00 0.14905487E+02</pdfrwt>
<pdfrwt beam="2">  1       -2 0.99688428E+00 0.14905487E+02</pdfrwt>
<totfact>-0.44592479E-13</totfact>
</mgrwt>
</event>
<event>
 4    1 -0.5010510E-019  0.1498817E+02  0.7818608E-02  0.1868430E+00
          2   -1    0    0  501    0  0.00000000000E+00  0.00000000000E+00  0.11972001663E+03  0.11972001666E+03  0.25500000000E-02 0.  1.
         -2   -1    0    0    0  501 -0.00000000000E+00 -0.00000000000E+00 -0.46910171132E+00  0.46910864206E+00  0.25500000000E-02 0. -1.
         31    1    1    2    0    0 -0.46587611768E+00  0.53292010610E+00  0.63223380686E+02  0.63664400066E+02  0.74470750000E+01 0.  1.
        -31    1    1    2    0    0  0.46587611768E+00 -0.53292010610E+00  0.56027534238E+02  0.56524725238E+02  0.74470750000E+01 0. -1.
<mgrwt>
<rscale>  0 0.14988166E+02</rscale>
<asrwt>0</asrwt>
<pdfrwt beam="1">  1        2 0.99380778E+00 0.14988166E+02</pdfrwt>
<pdfrwt beam="2">  1       -2 0.99632035E+00 0.14988166E+02</pdfrwt>
<totfact>-0.11969146E-13</totfact>
</mgrwt>
</event>
<event>
 4    1  0.5010510E-019  0.1489600E+02  0.7818608E-02  0.1871259E+00
         -2   -1    0    0    0  501 -0.00000000000E+00  0.00000000000E+00  0.11813130841E+03  0.11813130844E+03  0.25500000000E-02 0. -1.
          2   -1    0    0  501    0  0.00000000000E+00 -0.00000000000E+00 -0.46958131082E+00  0.46958823449E+00  0.25500000000E-02 0.  1.
         31    1    1    2    0    0  0.42954205408E-01 -0.10906162503E+00  0.58839954969E+02  0.59309467763E+02  0.74470750000E+01 0.  1.
        -31    1    1    2    0    0 -0.42954205408E-01  0.10906162503E+00  0.58821772131E+02  0.59291428910E+02  0.74470750000E+01 0.  1.
<mgrwt>
<rscale>  0 0.14895995E+02</rscale>
<asrwt>0</asrwt>
<pdfrwt beam="2">  1        2 0.99728257E+00 0.14895995E+02</pdfrwt>
<pdfrwt beam="1">  1       -2 0.98067519E+00 0.14895995E+02</pdfrwt>
<totfact> 0.86794792E-13</totfact>
</mgrwt>
</event>
<event>
 4    1  0.5010510E-019  0.1494097E+02  0.7818608E-02  0.1869875E+00
         -2   -1    0    0    0  501 -0.00000000000E+00  0.00000000000E+00  0.11852516582E+03  0.11852516584E+03  0.25500000000E-02 0.  1.
          2   -1    0    0  501    0  0.00000000000E+00 -0.00000000000E+00 -0.47085145115E+00  0.47085835614E+00  0.25500000000E-02 0. -1.
         31    1    1    2    0    0  0.45953341689E+00  0.13249820412E+00  0.56262393996E+02  0.56755128675E+02  0.74470750000E+01 0. -1.
        -31    1    1    2    0    0 -0.45953341689E+00 -0.13249820412E+00  0.61791920370E+02  0.62240895525E+02  0.74470750000E+01 0.  1.
<mgrwt>
<rscale>  0 0.14940972E+02</rscale>
<asrwt>0</asrwt>
<pdfrwt beam="2">  1        2 0.99998250E+00 0.14940972E+02</pdfrwt>
<pdfrwt beam="1">  1       -2 0.98394239E+00 0.14940972E+02</pdfrwt>
<totfact> 0.38300898E-15</totfact>
</mgrwt>
</event>
<event>
 4    1  0.5010510E-019  0.1493751E+02  0.7818608E-02  0.1869981E+00
         -2   -1    0    0    0  501 -0.00000000000E+00  0.00000000000E+00  0.11896346212E+03  0.11896346215E+03  0.25500000000E-02 0.  1.
          2   -1    0    0  501    0  0.00000000000E+00 -0.00000000000E+00 -0.46889939729E+00  0.46890633103E+00  0.25500000000E-02 0. -1.
         31    1    1    2    0    0 -0.37567546713E+00 -0.12679226948E+00  0.62506618105E+02  0.62949928048E+02  0.74470750000E+01 0.  1.
        -31    1    1    2    0    0  0.37567546713E+00  0.12679226948E+00  0.55987944617E+02  0.56482440429E+02  0.74470750000E+01 0. -1.
<mgrwt>
<rscale>  0 0.14937511E+02</rscale>
<asrwt>0</asrwt>
<pdfrwt beam="2">  1        2 0.99586763E+00 0.14937511E+02</pdfrwt>
<pdfrwt beam="1">  1       -2 0.98755039E+00 0.14937511E+02</pdfrwt>
<totfact> 0.17292615E-13</totfact>
</mgrwt>
</event>
<event>
 4    1 -0.5010510E-019  0.1495249E+02  0.7818608E-02  0.1869522E+00
          2   -1    0    0  501    0  0.00000000000E+00  0.00000000000E+00  0.11954472036E+03  0.11954472039E+03  0.25500000000E-02 0. -1.
         -2   -1    0    0    0  501 -0.00000000000E+00 -0.00000000000E+00 -0.46755590781E+00  0.46756286148E+00  0.25500000000E-02 0.  1.
         31    1    1    2    0    0 -0.74121924569E-01 -0.38460714958E+00  0.63800177974E+02  0.64234531619E+02  0.74470750000E+01 0.  1.
        -31    1    1    2    0    0  0.74121924569E-01  0.38460714958E+00  0.55276986481E+02  0.55777751632E+02  0.74470750000E+01 0. -1.
<mgrwt>
<rscale>  0 0.14952493E+02</rscale>
<asrwt>0</asrwt>
<pdfrwt beam="1">  1        2 0.99234553E+00 0.14952493E+02</pdfrwt>
<pdfrwt beam="2">  1       -2 0.99304439E+00 0.14952493E+02</pdfrwt>
<totfact>-0.12909921E-13</totfact>
</mgrwt>
</event>
<event>
 4    1  0.5010510E-019  0.1490701E+02  0.7818608E-02  0.1870919E+00
          2   -1    0    0  501    0  0.00000000000E+00  0.00000000000E+00  0.11940576903E+03  0.11940576905E+03  0.25500000000E-02 0.  1.
         -2   -1    0    0    0  501 -0.00000000000E+00 -0.00000000000E+00 -0.46525652603E+00  0.46526351406E+00  0.25500000000E-02 0. -1.
         31    1    1    2    0    0  0.28394855434E+00 -0.12299466795E+00  0.59411592272E+02  0.59877307695E+02  0.74470750000E+01 0. -1.
        -31    1    1    2    0    0 -0.28394855434E+00  0.12299466795E+00  0.59528920228E+02  0.59993724872E+02  0.74470750000E+01 0. -1.
<mgrwt>
<rscale>  0 0.14907010E+02</rscale>
<asrwt>0</asrwt>
<pdfrwt beam="1">  1        2 0.99117757E+00 0.14907010E+02</pdfrwt>
<pdfrwt beam="2">  1       -2 0.98817527E+00 0.14907010E+02</pdfrwt>
<totfact> 0.18423559E-13</totfact>
</mgrwt>
</event>
<event>
 4    1  0.5010510E-019  0.1491986E+02  0.7818608E-02  0.1870524E+00
         -2   -1    0    0    0  501 -0.00000000000E+00  0.00000000000E+00  0.11828153837E+03  0.11828153840E+03  0.25500000000E-02 0.  1.
          2   -1    0    0  501    0  0.00000000000E+00 -0.00000000000E+00 -0.47048860028E+00  0.47049551060E+00  0.25500000000E-02 0. -1.
         31    1    1    2    0    0 -0.30095301777E+00  0.15651354585E+00  0.56703621580E+02  0.57191561401E+02  0.74470750000E+01 0. -1.
        -31    1    1    2    0    0  0.30095301777E+00 -0.15651354585E+00  0.61107428193E+02  0.61560472510E+02  0.74470750000E+01 0.  1.
<mgrwt>
<rscale>  0 0.14919856E+02</rscale>
<asrwt>0</asrwt>
<pdfrwt beam="2">  1        2 0.99920681E+00 0.14919856E+02</pdfrwt>
<pdfrwt beam="1">  1       -2 0.98192490E+00 0.14919856E+02</pdfrwt>
<totfact> 0.24803761E-13</totfact>
</mgrwt>
</event>
<event>
 4    1 -0.5010510E-019  0.1494022E+02  0.7818608E-02  0.1869898E+00
         -2   -1    0    0    0  501 -0.00000000000E+00  0.00000000000E+00  0.12033243229E+03  0.12033243232E+03  0.25500000000E-02 0. -1.
          2   -1    0    0  501    0  0.00000000000E+00 -0.00000000000E+00 -0.46373316375E+00  0.46374017473E+00  0.25500000000E-02 0.  1.
         31    1    1    2    0    0  0.24533357278E+00 -0.21137515968E+00  0.63885162464E+02  0.64318564794E+02  0.74470750000E+01 0. -1.
        -31    1    1    2    0    0 -0.24533357278E+00  0.21137515968E+00  0.55983536661E+02  0.56477607697E+02  0.74470750000E+01 0.  1.
<mgrwt>
<rscale>  0 0.14940223E+02</rscale>
<asrwt>0</asrwt>
<pdfrwt beam="2">  1        2 0.98498166E+00 0.14940223E+02</pdfrwt>
<pdfrwt beam="1">  1       -2 0.99882727E+00 0.14940223E+02</pdfrwt>
<totfact>-0.13082124E-13</totfact>
</mgrwt>
</event>
<event>
 4    1 -0.5010510E-019  0.1491135E+02  0.7818608E-02  0.1870786E+00
         -2   -1    0    0    0  501 -0.00000000000E+00  0.00000000000E+00  0.12007309858E+03  0.12007309860E+03  0.25500000000E-02 0.  1.
          2   -1    0    0  501    0  0.00000000000E+00 -0.00000000000E+00 -0.46294028046E+00  0.46294730345E+00  0.25500000000E-02 0. -1.
         31    1    1    2    0    0 -0.24171561753E+00  0.21077696876E+00  0.61091332815E+02  0.61544396370E+02  0.74470750000E+01 0. -1.
        -31    1    1    2    0    0  0.24171561753E+00 -0.21077696876E+00  0.58518825480E+02  0.58991649536E+02  0.74470750000E+01 0. -1.
<mgrwt>
<rscale>  0 0.14911351E+02</rscale>
<asrwt>0</asrwt>
<pdfrwt beam="2">  1        2 0.98329589E+00 0.14911351E+02</pdfrwt>
<pdfrwt beam="1">  1       -2 0.99667636E+00 0.14911351E+02</pdfrwt>
<totfact>-0.39308230E-13</totfact>
</mgrwt>
</event>
<event>
 4    1  0.5010510E-019  0.1491435E+02  0.7818608E-02  0.1870693E+00
         -2   -1    0    0    0  501 -0.00000000000E+00  0.00000000000E+00  0.11868533816E+03  0.11868533818E+03  0.25500000000E-02 0. -1.
          2   -1    0    0  501    0  0.00000000000E+00 -0.00000000000E+00 -0.46854197025E+00  0.46854890928E+00  0.25500000000E-02 0.  1.
         31    1    1    2    0    0  0.57203167427E-01 -0.17820601867E+00  0.61823807785E+02  0.62270997781E+02  0.74470750000E+01 0. -1.
        -31    1    1    2    0    0 -0.57203167427E-01  0.17820601867E+00  0.56392988402E+02  0.56882889312E+02  0.74470750000E+01 0.  1.
<mgrwt>
<rscale>  0 0.14914352E+02</rscale>
<asrwt>0</asrwt>
<pdfrwt beam="2">  1        2 0.99510236E+00 0.14914352E+02</pdfrwt>
<pdfrwt beam="1">  1       -2 0.98524771E+00 0.14914352E+02</pdfrwt>
<totfact> 0.44658381E-13</totfact>
</mgrwt>
</event>
<event>
 4    1 -0.5010510E-019  0.1496825E+02  0.7818608E-02  0.1869039E+00
         -2   -1    0    0    0  501 -0.00000000000E+00  0.00000000000E+00  0.11964975056E+03  0.11964975059E+03  0.25500000000E-02 0. -1.
          2   -1    0    0  501    0  0.00000000000E+00 -0.00000000000E+00 -0.46813040494E+00  0.46813735007E+00  0.25500000000E-02 0.  1.
         31    1    1    2    0    0 -0.58528239950E+00  0.44064256350E+00  0.60620292512E+02  0.61080402026E+02  0.74470750000E+01 0.  1.
        -31    1    1    2    0    0  0.58528239950E+00 -0.44064256350E+00  0.58561327647E+02  0.59037485916E+02  0.74470750000E+01 0. -1.
<mgrwt>
<rscale>  0 0.14968247E+02</rscale>
<asrwt>0</asrwt>
<pdfrwt beam="2">  1        2 0.99426320E+00 0.14968247E+02</pdfrwt>
<pdfrwt beam="1">  1       -2 0.99321874E+00 0.14968247E+02</pdfrwt>
<totfact>-0.11498993E-13</totfact>
</mgrwt>
</event>
<event>
 4    1  0.5010510E-019  0.1491190E+02  0.7818608E-02  0.1870769E+00
          2   -1    0    0  501    0  0.00000000000E+00  0.00000000000E+00  0.12011737328E+03  0.12011737331E+03  0.25500000000E-02 0. -1.
         -2   -1    0    0    0  501 -0.00000000000E+00 -0.00000000000E+00 -0.46280365533E+00  0.46281068039E+00  0.25500000000E-02 0.  1.
         31    1    1    2    0    0  0.10080203415E+00 -0.33482084875E+00  0.60635598290E+02  0.61092200583E+02  0.74470750000E+01 0.  1.
        -31    1    1    2    0    0 -0.10080203415E+00  0.33482084875E+00  0.59018971334E+02  0.59487983404E+02  0.74470750000E+01 0. -1.
<mgrwt>
<rscale>  0 0.14911899E+02</rscale>
<asrwt>0</asrwt>
<pdfrwt beam="1">  1        2 0.99704133E+00 0.14911899E+02</pdfrwt>
<pdfrwt beam="2">  1       -2 0.98300821E+00 0.14911899E+02</pdfrwt>
<totfact> 0.58135837E-13</totfact>
</mgrwt>
</event>
<event>
 4    1 -0.5010510E-019  0.1497984E+02  0.7818608E-02  0.1868684E+00
          2   -1    0    0  501    0  0.00000000000E+00  0.00000000000E+00  0.11972756987E+03  0.11972756989E+03  0.25500000000E-02 0.  1.
         -2   -1    0    0    0  501 -0.00000000000E+00 -0.00000000000E+00 -0.46855103919E+00  0.46855797809E+00  0.25500000000E-02 0. -1.
         31    1    1    2    0    0  0.71183422972E+00  0.33500722423E+00  0.58465854435E+02  0.58943481393E+02  0.74470750000E+01 0.  1.
        -31    1    1    2    0    0 -0.71183422972E+00 -0.33500722423E+00  0.60793164391E+02  0.61252646478E+02  0.74470750000E+01 0.  1.
<mgrwt>
<rscale>  0 0.14979839E+02</rscale>
<asrwt>0</asrwt>
<pdfrwt beam="1">  1        2 0.99386568E+00 0.14979839E+02</pdfrwt>
<pdfrwt beam="2">  1       -2 0.99515561E+00 0.14979839E+02</pdfrwt>
<totfact>-0.13143892E-13</totfact>
</mgrwt>
</event>
<event>
 4    1 -0.5010510E-019  0.1499611E+02  0.7818608E-02  0.1868187E+00
          2   -1    0    0  501    0  0.00000000000E+00  0.00000000000E+00  0.11988950249E+03  0.11988950252E+03  0.25500000000E-02 0. -1.
         -2   -1    0    0    0  501 -0.00000000000E+00 -0.00000000000E+00 -0.46893516514E+00  0.46894209835E+00  0.25500000000E-02 0.  1.
         31    1    1    2    0    0 -0.78568720969E+00 -0.33489586893E+00  0.58264786811E+02  0.58744989300E+02  0.74470750000E+01 0. -1.
        -31    1    1    2    0    0  0.78568720969E+00  0.33489586893E+00  0.61155780515E+02  0.61613455317E+02  0.74470750000E+01 0.  1.
<mgrwt>
<rscale>  0 0.14996109E+02</rscale>
<asrwt>0</asrwt>
<pdfrwt beam="1">  1        2 0.99520783E+00 0.14996109E+02</pdfrwt>
<pdfrwt beam="2">  1       -2 0.99597351E+00 0.14996109E+02</pdfrwt>
<totfact>-0.10980982E-13</totfact>
</mgrwt>
</event>
<event>
 4    1  0.5010510E-019  0.1494586E+02  0.7818608E-02  0.1869725E+00
          2   -1    0    0  501    0  0.00000000000E+00  0.00000000000E+00  0.12023975320E+03  0.12023975323E+03  0.25500000000E-02 0.  1.
         -2   -1    0    0    0  501 -0.00000000000E+00 -0.00000000000E+00 -0.46444087350E+00  0.46444787380E+00  0.25500000000E-02 0. -1.
         31    1    1    2    0    0  0.21227356803E+00 -0.33040106238E-01  0.55181277909E+02  0.55681940605E+02  0.74470750000E+01 0. -1.
        -31    1    1    2    0    0 -0.21227356803E+00  0.33040106238E-01  0.64594034418E+02  0.65022260497E+02  0.74470750000E+01 0.  1.
<mgrwt>
<rscale>  0 0.14945860E+02</rscale>
<asrwt>0</asrwt>
<pdfrwt beam="1">  1        2 0.99806679E+00 0.14945860E+02</pdfrwt>
<pdfrwt beam="2">  1       -2 0.98647613E+00 0.14945860E+02</pdfrwt>
<totfact> 0.16139006E-13</totfact>
</mgrwt>
</event>
<event>
 4    1 -0.5010510E-019  0.1495796E+02  0.7818608E-02  0.1869354E+00
         -2   -1    0    0    0  501 -0.00000000000E+00  0.00000000000E+00  0.11968083400E+03  0.11968083402E+03  0.25500000000E-02 0.  1.
          2   -1    0    0  501    0  0.00000000000E+00 -0.00000000000E+00 -0.46736576763E+00  0.46737272412E+00  0.25500000000E-02 0. -1.
         31    1    1    2    0    0  0.44377788412E+00  0.39965799676E+00  0.56829418919E+02  0.57318395355E+02  0.74470750000E+01 0. -1.
        -31    1    1    2    0    0 -0.44377788412E+00 -0.39965799676E+00  0.62384049310E+02  0.62829811393E+02  0.74470750000E+01 0.  1.
<mgrwt>
<rscale>  0 0.14957960E+02</rscale>
<asrwt>0</asrwt>
<pdfrwt beam="2">  1        2 0.99264653E+00 0.14957960E+02</pdfrwt>
<pdfrwt beam="1">  1       -2 0.99346944E+00 0.14957960E+02</pdfrwt>
<totfact>-0.13453665E-13</totfact>
</mgrwt>
</event>
<event>
 4    1  0.5010510E-019  0.1494816E+02  0.7818608E-02  0.1869654E+00
          2   -1    0    0  501    0  0.00000000000E+00  0.00000000000E+00  0.11999829790E+03  0.11999829793E+03  0.25500000000E-02 0.  1.
         -2   -1    0    0    0  501 -0.00000000000E+00 -0.00000000000E+00 -0.46551887976E+00  0.46552586385E+00  0.25500000000E-02 0. -1.
         31    1    1    2    0    0 -0.61061790828E-01  0.25953559134E+00  0.55123794632E+02  0.55625198858E+02  0.74470750000E+01 0. -1.
        -31    1    1    2    0    0  0.61061790828E-01 -0.25953559134E+00  0.64408984391E+02  0.64838624936E+02  0.74470750000E+01 0.  1.
<mgrwt>
<rscale>  0 0.14948163E+02</rscale>
<asrwt>0</asrwt>
<pdfrwt beam="1">  1        2 0.99607918E+00 0.14948163E+02</pdfrwt>
<pdfrwt beam="2">  1       -2 0.98874928E+00 0.14948163E+02</pdfrwt>
<totfact> 0.79414685E-14</totfact>
</mgrwt>
</event>
<event>
 4    1 -0.5010510E-019  0.1493540E+02  0.7818608E-02  0.1870046E+00
         -2   -1    0    0    0  501 -0.00000000000E+00  0.00000000000E+00  0.12001750483E+03  0.12001750485E+03  0.25500000000E-02 0. -1.
          2   -1    0    0  501    0  0.00000000000E+00 -0.00000000000E+00 -0.46464972993E+00  0.46465672708E+00  0.25500000000E-02 0.  1.
         31    1    1    2    0    0  0.25280559088E+00  0.17409323466E+00  0.56050091803E+02  0.56543487125E+02  0.74470750000E+01 0.  1.
        -31    1    1    2    0    0 -0.25280559088E+00 -0.17409323466E+00  0.63502763295E+02  0.63938674457E+02  0.74470750000E+01 0. -1.
<mgrwt>
<rscale>  0 0.14935397E+02</rscale>
<asrwt>0</asrwt>
<pdfrwt beam="2">  1        2 0.98691099E+00 0.14935397E+02</pdfrwt>
<pdfrwt beam="1">  1       -2 0.99623081E+00 0.14935397E+02</pdfrwt>
<totfact>-0.23631909E-13</totfact>
</mgrwt>
</event>
<event>
 4    1 -0.5010510E-019  0.1492435E+02  0.7818608E-02  0.1870386E+00
          2   -1    0    0  501    0  0.00000000000E+00  0.00000000000E+00  0.11928017416E+03  0.11928017418E+03  0.25500000000E-02 0. -1.
         -2   -1    0    0    0  501 -0.00000000000E+00 -0.00000000000E+00 -0.46683032336E+00  0.46683728783E+00  0.25500000000E-02 0.  1.
         31    1    1    2    0    0 -0.22139198159E+00  0.27267044220E+00  0.56847516873E+02  0.57334304428E+02  0.74470750000E+01 0.  1.
        -31    1    1    2    0    0  0.22139198159E+00 -0.27267044220E+00  0.61965826960E+02  0.62412707044E+02  0.74470750000E+01 0. -1.
<mgrwt>
<rscale>  0 0.14924345E+02</rscale>
<asrwt>0</asrwt>
<pdfrwt beam="1">  1        2 0.99015207E+00 0.14924345E+02</pdfrwt>
<pdfrwt beam="2">  1       -2 0.99150078E+00 0.14924345E+02</pdfrwt>
<totfact>-0.91379922E-14</totfact>
</mgrwt>
</event>
<event>
 4    1 -0.5010510E-019  0.1494911E+02  0.7818608E-02  0.1869625E+00
         -2   -1    0    0    0  501 -0.00000000000E+00  0.00000000000E+00  0.11958610489E+03  0.11958610492E+03  0.25500000000E-02 0. -1.
          2   -1    0    0  501    0  0.00000000000E+00 -0.00000000000E+00 -0.46718252474E+00  0.46718948396E+00  0.25500000000E-02 0.  1.
         31    1    1    2    0    0  0.25849656446E-01  0.83691406915E-01  0.54465380660E+02  0.54972213789E+02  0.74470750000E+01 0.  1.
        -31    1    1    2    0    0 -0.25849656446E-01 -0.83691406915E-01  0.64653541710E+02  0.65081080616E+02  0.74470750000E+01 0. -1.
<mgrwt>
<rscale>  0 0.14949108E+02</rscale>
<asrwt>0</asrwt>
<pdfrwt beam="2">  1        2 0.99225580E+00 0.14949108E+02</pdfrwt>
<pdfrwt beam="1">  1       -2 0.99268464E+00 0.14949108E+02</pdfrwt>
<totfact>-0.12079626E-13</totfact>
</mgrwt>
</event>
<event>
 4    1  0.5010510E-019  0.1494556E+02  0.7818608E-02  0.1869734E+00
         -2   -1    0    0    0  501 -0.00000000000E+00  0.00000000000E+00  0.11888032186E+03  0.11888032189E+03  0.25500000000E-02 0.  1.
          2   -1    0    0  501    0  0.00000000000E+00 -0.00000000000E+00 -0.46973290599E+00  0.46973982742E+00  0.25500000000E-02 0. -1.
         31    1    1    2    0    0 -0.44227952196E+00  0.37809267929E+00  0.60897846880E+02  0.61354260210E+02  0.74470750000E+01 0.  1.
        -31    1    1    2    0    0  0.44227952196E+00 -0.37809267929E+00  0.57512742079E+02  0.57995801510E+02  0.74470750000E+01 0.  1.
<mgrwt>
<rscale>  0 0.14945556E+02</rscale>
<asrwt>0</asrwt>
<pdfrwt beam="2">  1        2 0.99762814E+00 0.14945556E+02</pdfrwt>
<pdfrwt beam="1">  1       -2 0.98686982E+00 0.14945556E+02</pdfrwt>
<totfact> 0.16208084E-13</totfact>
</mgrwt>
</event>
<event>
 4    1 -0.5010510E-019  0.1498034E+02  0.7818608E-02  0.1868669E+00
          2   -1    0    0  501    0  0.00000000000E+00  0.00000000000E+00  0.11988130020E+03  0.11988130022E+03  0.25500000000E-02 0. -1.
         -2   -1    0    0    0  501 -0.00000000000E+00 -0.00000000000E+00 -0.46798144964E+00  0.46798839698E+00  0.25500000000E-02 0.  1.
         31    1    1    2    0    0 -0.35994155628E+00 -0.43726571774E+00  0.64272235565E+02  0.64704713506E+02  0.74470750000E+01 0.  1.
        -31    1    1    2    0    0  0.35994155628E+00  0.43726571774E+00  0.55141083181E+02  0.55644575115E+02  0.74470750000E+01 0.  1.
<mgrwt>
<rscale>  0 0.14980340E+02</rscale>
<asrwt>0</asrwt>
<pdfrwt beam="1">  1        2 0.99513212E+00 0.14980340E+02</pdfrwt>
<pdfrwt beam="2">  1       -2 0.99395555E+00 0.14980340E+02</pdfrwt>
<totfact>-0.11475340E-13</totfact>
</mgrwt>
</event>
<event>
 4    1 -0.5010510E-019  0.1495601E+02  0.7818608E-02  0.1869414E+00
          2   -1    0    0  501    0  0.00000000000E+00  0.00000000000E+00  0.11972712315E+03  0.11972712318E+03  0.25500000000E-02 0. -1.
         -2   -1    0    0    0  501 -0.00000000000E+00 -0.00000000000E+00 -0.46706299892E+00  0.46706995992E+00  0.25500000000E-02 0.  1.
         31    1    1    2    0    0  0.47052254908E+00  0.28733744666E-01  0.55697996353E+02  0.56195622079E+02  0.74470750000E+01 0.  1.
        -31    1    1    2    0    0 -0.47052254908E+00 -0.28733744666E-01  0.63562063799E+02  0.63998571058E+02  0.74470750000E+01 0. -1.
<mgrwt>
<rscale>  0 0.14956006E+02</rscale>
<asrwt>0</asrwt>
<pdfrwt beam="1">  1        2 0.99384968E+00 0.14956006E+02</pdfrwt>
<pdfrwt beam="2">  1       -2 0.99200747E+00 0.14956006E+02</pdfrwt>
<totfact>-0.87554125E-14</totfact>
</mgrwt>
</event>
<event>
 4    1 -0.5010510E-019  0.1490773E+02  0.7818608E-02  0.1870897E+00
          2   -1    0    0  501    0  0.00000000000E+00  0.00000000000E+00  0.11863543216E+03  0.11863543219E+03  0.25500000000E-02 0.  1.
         -2   -1    0    0    0  501 -0.00000000000E+00 -0.00000000000E+00 -0.46832296453E+00  0.46832990680E+00  0.25500000000E-02 0. -1.
         31    1    1    2    0    0 -0.15192218165E+00  0.27903089190E+00  0.58957812906E+02  0.59427128210E+02  0.74470750000E+01 0.  1.
        -31    1    1    2    0    0  0.15192218165E+00 -0.27903089190E+00  0.59209296292E+02  0.59676633886E+02  0.74470750000E+01 0.  1.
<mgrwt>
<rscale>  0 0.14907731E+02</rscale>
<asrwt>0</asrwt>
<pdfrwt beam="1">  1        2 0.98483324E+00 0.14907731E+02</pdfrwt>
<pdfrwt beam="2">  1       -2 0.99463742E+00 0.14907731E+02</pdfrwt>
<totfact>-0.35746736E-13</totfact>
</mgrwt>
</event>
<event>
 4    1 -0.5010510E-019  0.1500316E+02  0.7818608E-02  0.1867972E+00
          2   -1    0    0  501    0  0.00000000000E+00  0.00000000000E+00  0.12005914062E+03  0.12005914065E+03  0.25500000000E-02 0.  1.
         -2   -1    0    0    0  501 -0.00000000000E+00 -0.00000000000E+00 -0.46871293883E+00  0.46871987533E+00  0.25500000000E-02 0. -1.
         31    1    1    2    0    0 -0.51777727712E+00  0.63421043996E+00  0.56741955310E+02  0.57234419143E+02  0.74470750000E+01 0. -1.
        -31    1    1    2    0    0  0.51777727712E+00 -0.63421043996E+00  0.62848472372E+02  0.63293441380E+02  0.74470750000E+01 0. -1.
<mgrwt>
<rscale>  0 0.15003159E+02</rscale>
<asrwt>0</asrwt>
<pdfrwt beam="1">  1        2 0.99660868E+00 0.15003159E+02</pdfrwt>
<pdfrwt beam="2">  1       -2 0.99550884E+00 0.15003159E+02</pdfrwt>
<totfact>-0.93382131E-14</totfact>
</mgrwt>
</event>
<event>
 4    1  0.5010510E-019  0.1490844E+02  0.7818608E-02  0.1870875E+00
          2   -1    0    0  501    0  0.00000000000E+00  0.00000000000E+00  0.11976014045E+03  0.11976014047E+03  0.25500000000E-02 0. -1.
         -2   -1    0    0    0  501 -0.00000000000E+00 -0.00000000000E+00 -0.46396876564E+00  0.46397577306E+00  0.25500000000E-02 0.  1.
         31    1    1    2    0    0  0.18931016878E+00 -0.14208812675E+00  0.61459096410E+02  0.61909090488E+02  0.74470750000E+01 0. -1.
        -31    1    1    2    0    0 -0.18931016878E+00  0.14208812675E+00  0.57837075269E+02  0.58315025758E+02  0.74470750000E+01 0.  1.
<mgrwt>
<rscale>  0 0.14908439E+02</rscale>
<asrwt>0</asrwt>
<pdfrwt beam="1">  1        2 0.99409711E+00 0.14908439E+02</pdfrwt>
<pdfrwt beam="2">  1       -2 0.98546206E+00 0.14908439E+02</pdfrwt>
<totfact> 0.45992099E-13</totfact>
</mgrwt>
</event>
<event>
 4    1 -0.5010510E-019  0.1490766E+02  0.7818608E-02  0.1870899E+00
          2   -1    0    0  501    0  0.00000000000E+00  0.00000000000E+00  0.11837564605E+03  0.11837564608E+03  0.25500000000E-02 0.  1.
         -2   -1    0    0    0  501 -0.00000000000E+00 -0.00000000000E+00 -0.46934651075E+00  0.46935343789E+00  0.25500000000E-02 0. -1.
         31    1    1    2    0    0  0.28497025962E+00 -0.10306058369E-01  0.57843645179E+02  0.58321758614E+02  0.74470750000E+01 0. -1.
        -31    1    1    2    0    0 -0.28497025962E+00  0.10306058369E-01  0.60062654362E+02  0.60523240903E+02  0.74470750000E+01 0.  1.
<mgrwt>
<rscale>  0 0.14907664E+02</rscale>
<asrwt>0</asrwt>
<pdfrwt beam="1">  1        2 0.98269361E+00 0.14907664E+02</pdfrwt>
<pdfrwt beam="2">  1       -2 0.99679403E+00 0.14907664E+02</pdfrwt>
<totfact>-0.42590856E-13</totfact>
</mgrwt>
</event>
<event>
 4    1 -0.5010510E-019  0.1494720E+02  0.7818608E-02  0.1869684E+00
          2   -1    0    0  501    0  0.00000000000E+00  0.00000000000E+00  0.11923559947E+03  0.11923559949E+03  0.25500000000E-02 0. -1.
         -2   -1    0    0    0  501 -0.00000000000E+00 -0.00000000000E+00 -0.46843603324E+00  0.46844297384E+00  0.25500000000E-02 0.  1.
         31    1    1    2    0    0  0.15183624794E+00  0.56588012268E+00  0.57549177952E+02  0.58031974665E+02  0.74470750000E+01 0.  1.
        -31    1    1    2    0    0 -0.15183624794E+00 -0.56588012268E+00  0.61217985481E+02  0.61672067802E+02  0.74470750000E+01 0. -1.
<mgrwt>
<rscale>  0 0.14947196E+02</rscale>
<asrwt>0</asrwt>
<pdfrwt beam="1">  1        2 0.98979678E+00 0.14947196E+02</pdfrwt>
<pdfrwt beam="2">  1       -2 0.99489630E+00 0.14947196E+02</pdfrwt>
<totfact>-0.18242620E-13</totfact>
</mgrwt>
</event>
<event>
 4    1  0.5010510E-019  0.1490598E+02  0.7818608E-02  0.1870951E+00
          2   -1    0    0  501    0  0.00000000000E+00  0.00000000000E+00  0.11998357494E+03  0.11998357497E+03  0.25500000000E-02 0.  1.
         -2   -1    0    0    0  501 -0.00000000000E+00 -0.00000000000E+00 -0.46295191613E+00  0.46295893894E+00  0.25500000000E-02 0. -1.
         31    1    1    2    0    0 -0.12357546426E+00  0.26311089667E+00  0.60246897489E+02  0.60706112389E+02  0.74470750000E+01 0.  1.
        -31    1    1    2    0    0  0.12357546426E+00 -0.26311089667E+00  0.59273725539E+02  0.59740421521E+02  0.74470750000E+01 0.  1.
<mgrwt>
<rscale>  0 0.14905979E+02</rscale>
<asrwt>0</asrwt>
<pdfrwt beam="1">  1        2 0.99593621E+00 0.14905979E+02</pdfrwt>
<pdfrwt beam="2">  1       -2 0.98331769E+00 0.14905979E+02</pdfrwt>
<totfact> 0.66235062E-13</totfact>
</mgrwt>
</event>
<event>
 4    1 -0.5010510E-019  0.1489904E+02  0.7818608E-02  0.1871165E+00
          2   -1    0    0  501    0  0.00000000000E+00  0.00000000000E+00  0.11800871403E+03  0.11800871406E+03  0.25500000000E-02 0.  1.
         -2   -1    0    0    0  501 -0.00000000000E+00 -0.00000000000E+00 -0.47026163240E+00  0.47026854606E+00  0.25500000000E-02 0. -1.
         31    1    1    2    0    0 -0.61448273180E-01 -0.48663020027E-01  0.60153709521E+02  0.60612984081E+02  0.74470750000E+01 0.  1.
        -31    1    1    2    0    0  0.61448273180E-01  0.48663020027E-01  0.57384742877E+02  0.57865998523E+02  0.74470750000E+01 0. -1.
<mgrwt>
<rscale>  0 0.14899044E+02</rscale>
<asrwt>0</asrwt>
<pdfrwt beam="1">  1        2 0.97966712E+00 0.14899044E+02</pdfrwt>
<pdfrwt beam="2">  1       -2 0.99871756E+00 0.14899044E+02</pdfrwt>
<totfact>-0.34398231E-13</totfact>
</mgrwt>
</event>
<event>
 4    1 -0.5010510E-019  0.1497158E+02  0.7818608E-02  0.1868937E+00
         -2   -1    0    0    0  501 -0.00000000000E+00  0.00000000000E+00  0.12006513373E+03  0.12006513375E+03  0.25500000000E-02 0. -1.
          2   -1    0    0  501    0  0.00000000000E+00 -0.00000000000E+00 -0.46671836962E+00  0.46672533576E+00  0.25500000000E-02 0.  1.
         31    1    1    2    0    0  0.56242018190E+00  0.47155747935E+00  0.61397551742E+02  0.61851895435E+02  0.74470750000E+01 0.  1.
        -31    1    1    2    0    0 -0.56242018190E+00 -0.47155747935E+00  0.58200863615E+02  0.58679963654E+02  0.74470750000E+01 0.  1.
<mgrwt>
<rscale>  0 0.14971576E+02</rscale>
<asrwt>0</asrwt>
<pdfrwt beam="2">  1        2 0.99128919E+00 0.14971576E+02</pdfrwt>
<pdfrwt beam="1">  1       -2 0.99664174E+00 0.14971576E+02</pdfrwt>
<totfact>-0.13714833E-13</totfact>
</mgrwt>
</event>
<event>
 4    1 -0.5010510E-019  0.1494490E+02  0.7818608E-02  0.1869754E+00
         -2   -1    0    0    0  501 -0.00000000000E+00  0.00000000000E+00  0.11985470521E+03  0.11985470524E+03  0.25500000000E-02 0. -1.
          2   -1    0    0  501    0  0.00000000000E+00 -0.00000000000E+00 -0.46587332990E+00  0.46588030868E+00  0.25500000000E-02 0.  1.
         31    1    1    2    0    0 -0.48581653621E+00  0.11306646799E+00  0.56793792259E+02  0.57282131306E+02  0.74470750000E+01 0.  1.
        -31    1    1    2    0    0  0.48581653621E+00 -0.11306646799E+00  0.62595039621E+02  0.63038454240E+02  0.74470750000E+01 0. -1.
<mgrwt>
<rscale>  0 0.14944903E+02</rscale>
<asrwt>0</asrwt>
<pdfrwt beam="2">  1        2 0.98949462E+00 0.14944903E+02</pdfrwt>
<pdfrwt beam="1">  1       -2 0.99489479E+00 0.14944903E+02</pdfrwt>
<totfact>-0.18808309E-13</totfact>
</mgrwt>
</event>
<event>
 4    1 -0.5010510E-019  0.1497935E+02  0.7818608E-02  0.1868699E+00
          2   -1    0    0  501    0  0.00000000000E+00  0.00000000000E+00  0.11948741159E+03  0.11948741161E+03  0.25500000000E-02 0.  1.
         -2   -1    0    0    0  501 -0.00000000000E+00 -0.00000000000E+00 -0.46946197386E+00  0.46946889929E+00  0.25500000000E-02 0. -1.
         31    1    1    2    0    0  0.61297343597E+00  0.51044122096E+00  0.59504078960E+02  0.59973582732E+02  0.74470750000E+01 0. -1.
        -31    1    1    2    0    0 -0.61297343597E+00 -0.51044122096E+00  0.59513870652E+02  0.59983297781E+02  0.74470750000E+01 0.  1.
<mgrwt>
<rscale>  0 0.14979348E+02</rscale>
<asrwt>0</asrwt>
<pdfrwt beam="1">  1        2 0.99188742E+00 0.14979348E+02</pdfrwt>
<pdfrwt beam="2">  1       -2 0.99707493E+00 0.14979348E+02</pdfrwt>
<totfact>-0.12025890E-13</totfact>
</mgrwt>
</event>
<event>
 4    1  0.5010510E-019  0.1493876E+02  0.7818608E-02  0.1869943E+00
         -2   -1    0    0    0  501 -0.00000000000E+00  0.00000000000E+00  0.11863139355E+03  0.11863139358E+03  0.25500000000E-02 0. -1.
          2   -1    0    0  501    0  0.00000000000E+00 -0.00000000000E+00 -0.47029031293E+00  0.47029722616E+00  0.25500000000E-02 0.  1.
         31    1    1    2    0    0  0.15382087836E-02 -0.57651286641E+00  0.59221604718E+02  0.59690784556E+02  0.74470750000E+01 0.  1.
        -31    1    1    2    0    0 -0.15382087836E-02  0.57651286641E+00  0.58939498521E+02  0.59410906249E+02  0.74470750000E+01 0.  1.
<mgrwt>
<rscale>  0 0.14938756E+02</rscale>
<asrwt>0</asrwt>
<pdfrwt beam="2">  1        2 0.99879903E+00 0.14938756E+02</pdfrwt>
<pdfrwt beam="1">  1       -2 0.98481611E+00 0.14938756E+02</pdfrwt>
<totfact> 0.18389460E-13</totfact>
</mgrwt>
</event>
<event>
 4    1 -0.5010510E-019  0.1491326E+02  0.7818608E-02  0.1870727E+00
         -2   -1    0    0    0  501 -0.00000000000E+00  0.00000000000E+00  0.11979426599E+03  0.11979426602E+03  0.25500000000E-02 0. -1.
          2   -1    0    0  501    0  0.00000000000E+00 -0.00000000000E+00 -0.46413655308E+00  0.46414355797E+00  0.25500000000E-02 0.  1.
         31    1    1    2    0    0 -0.12950403697E+00 -0.35437327363E+00  0.59717793612E+02  0.60181526664E+02  0.74470750000E+01 0. -1.
        -31    1    1    2    0    0  0.12950403697E+00  0.35437327363E+00  0.59612335825E+02  0.60076882911E+02  0.74470750000E+01 0.  1.
<mgrwt>
<rscale>  0 0.14913259E+02</rscale>
<asrwt>0</asrwt>
<pdfrwt beam="2">  1        2 0.98581814E+00 0.14913259E+02</pdfrwt>
<pdfrwt beam="1">  1       -2 0.99438067E+00 0.14913259E+02</pdfrwt>
<totfact>-0.30390362E-13</totfact>
</mgrwt>
</event>
<event>
 4    1 -0.5010510E-019  0.1492305E+02  0.7818608E-02  0.1870426E+00
         -2   -1    0    0    0  501 -0.00000000000E+00  0.00000000000E+00  0.11960882132E+03  0.11960882135E+03  0.25500000000E-02 0.  1.
          2   -1    0    0  501    0  0.00000000000E+00 -0.00000000000E+00 -0.46546666877E+00  0.46547365364E+00  0.25500000000E-02 0. -1.
         31    1    1    2    0    0 -0.34312070351E+00 -0.79761109616E-01  0.62003195846E+02  0.62449814370E+02  0.74470750000E+01 0.  1.
        -31    1    1    2    0    0  0.34312070351E+00  0.79761109616E-01  0.57140158807E+02  0.57624480633E+02  0.74470750000E+01 0. -1.
<mgrwt>
<rscale>  0 0.14923048E+02</rscale>
<asrwt>0</asrwt>
<pdfrwt beam="2">  1        2 0.98862638E+00 0.14923048E+02</pdfrwt>
<pdfrwt beam="1">  1       -2 0.99285828E+00 0.14923048E+02</pdfrwt>
<totfact>-0.17456125E-13</totfact>
</mgrwt>
</event>
<event>
 4    1  0.5010510E-019  0.1492523E+02  0.7818608E-02  0.1870359E+00
         -2   -1    0    0    0  501 -0.00000000000E+00  0.00000000000E+00  0.11905966591E+03  0.11905966594E+03  0.25500000000E-02 0.  1.
          2   -1    0    0  501    0  0.00000000000E+00 -0.00000000000E+00 -0.46775020375E+00  0.46775715453E+00  0.25500000000E-02 0. -1.
         31    1    1    2    0    0  0.33102837439E+00 -0.42938464927E-01  0.62073048215E+02  0.62519066406E+02  0.74470750000E+01 0. -1.
        -31    1    1    2    0    0 -0.33102837439E+00  0.42938464927E-01  0.56518867495E+02  0.57008356690E+02  0.74470750000E+01 0.  1.
<mgrwt>
<rscale>  0 0.14925227E+02</rscale>
<asrwt>0</asrwt>
<pdfrwt beam="2">  1        2 0.99343967E+00 0.14925227E+02</pdfrwt>
<pdfrwt beam="1">  1       -2 0.98833636E+00 0.14925227E+02</pdfrwt>
<totfact> 0.14072613E-13</totfact>
</mgrwt>
</event>
<event>
 4    1 -0.5010510E-019  0.1498977E+02  0.7818608E-02  0.1868381E+00
         -2   -1    0    0    0  501 -0.00000000000E+00  0.00000000000E+00  0.11978007207E+03  0.11978007210E+03  0.25500000000E-02 0.  1.
          2   -1    0    0  501    0  0.00000000000E+00 -0.00000000000E+00 -0.46896663973E+00  0.46897357248E+00  0.25500000000E-02 0. -1.
         31    1    1    2    0    0  0.55636290861E-01 -0.80127358745E+00  0.61766068540E+02  0.62218576677E+02  0.74470750000E+01 0.  1.
        -31    1    1    2    0    0 -0.55636290861E-01  0.80127358745E+00  0.57545036894E+02  0.58030468997E+02  0.74470750000E+01 0. -1.
<mgrwt>
<rscale>  0 0.14989767E+02</rscale>
<asrwt>0</asrwt>
<pdfrwt beam="2">  1        2 0.99603655E+00 0.14989767E+02</pdfrwt>
<pdfrwt beam="1">  1       -2 0.99430324E+00 0.14989767E+02</pdfrwt>
<totfact>-0.10435600E-13</totfact>
</mgrwt>
</event>
<event>
 4    1 -0.5010510E-019  0.1496979E+02  0.7818608E-02  0.1868992E+00
         -2   -1    0    0    0  501 -0.00000000000E+00  0.00000000000E+00  0.12010795303E+03  0.12010795305E+03  0.25500000000E-02 0.  1.
          2   -1    0    0  501    0  0.00000000000E+00 -0.00000000000E+00 -0.46644071607E+00  0.46644768636E+00  0.25500000000E-02 0. -1.
         31    1    1    2    0    0  0.57939715753E+00  0.19595648428E-01  0.63672215450E+02  0.64108860787E+02  0.74470750000E+01 0.  1.
        -31    1    1    2    0    0 -0.57939715753E+00 -0.19595648428E-01  0.55969296861E+02  0.56465539954E+02  0.74470750000E+01 0.  1.
<mgrwt>
<rscale>  0 0.14969791E+02</rscale>
<asrwt>0</asrwt>
<pdfrwt beam="2">  1        2 0.99070313E+00 0.14969791E+02</pdfrwt>
<pdfrwt beam="1">  1       -2 0.99699351E+00 0.14969791E+02</pdfrwt>
<totfact>-0.13444100E-13</totfact>
</mgrwt>
</event>
<event>
 4    1  0.5010510E-019  0.1491615E+02  0.7818608E-02  0.1870638E+00
          2   -1    0    0  501    0  0.00000000000E+00  0.00000000000E+00  0.11962347026E+03  0.11962347029E+03  0.25500000000E-02 0.  1.
         -2   -1    0    0    0  501 -0.00000000000E+00 -0.00000000000E+00 -0.46497939645E+00  0.46498638864E+00  0.25500000000E-02 0. -1.
         31    1    1    2    0    0  0.19649318275E+00 -0.25479342306E+00  0.61558116691E+02  0.62007775205E+02  0.74470750000E+01 0.  1.
        -31    1    1    2    0    0 -0.19649318275E+00  0.25479342306E+00  0.57600374175E+02  0.58080681474E+02  0.74470750000E+01 0. -1.
<mgrwt>
<rscale>  0 0.14916148E+02</rscale>
<asrwt>0</asrwt>
<pdfrwt beam="1">  1        2 0.99297538E+00 0.14916148E+02</pdfrwt>
<pdfrwt beam="2">  1       -2 0.98759593E+00 0.14916148E+02</pdfrwt>
<totfact> 0.22183621E-13</totfact>
</mgrwt>
</event>
<event>
 4    1  0.5010510E-019  0.1492490E+02  0.7818608E-02  0.1870369E+00
          2   -1    0    0  501    0  0.00000000000E+00  0.00000000000E+00  0.12018694982E+03  0.12018694985E+03  0.25500000000E-02 0.  1.
         -2   -1    0    0    0  501 -0.00000000000E+00 -0.00000000000E+00 -0.46334287750E+00  0.46334989439E+00  0.25500000000E-02 0. -1.
         31    1    1    2    0    0  0.29520644627E+00 -0.30739693647E+00  0.61625973158E+02  0.62075769294E+02  0.74470750000E+01 0.  1.
        -31    1    1    2    0    0 -0.29520644627E+00  0.30739693647E+00  0.58097633788E+02  0.58574530451E+02  0.74470750000E+01 0. -1.
<mgrwt>
<rscale>  0 0.14924904E+02</rscale>
<asrwt>0</asrwt>
<pdfrwt beam="1">  1        2 0.99762109E+00 0.14924904E+02</pdfrwt>
<pdfrwt beam="2">  1       -2 0.98415130E+00 0.14924904E+02</pdfrwt>
<totfact> 0.38079797E-13</totfact>
</mgrwt>
</event>
<event>
 4    1 -0.5010510E-019  0.1491536E+02  0.7818608E-02  0.1870662E+00
         -2   -1    0    0    0  501 -0.00000000000E+00  0.00000000000E+00  0.11991198761E+03  0.11991198764E+03  0.25500000000E-02 0. -1.
          2   -1    0    0  501    0  0.00000000000E+00 -0.00000000000E+00 -0.46381146788E+00  0.46381847768E+00  0.25500000000E-02 0.  1.
         31    1    1    2    0    0 -0.12418711401E+00  0.15904760597E+00  0.56959583866E+02  0.57444702443E+02  0.74470750000E+01 0.  1.
        -31    1    1    2    0    0  0.12418711401E+00 -0.15904760597E+00  0.62488592277E+02  0.62931103672E+02  0.74470750000E+01 0. -1.
<mgrwt>
<rscale>  0 0.14915358E+02</rscale>
<asrwt>0</asrwt>
<pdfrwt beam="2">  1        2 0.98513407E+00 0.14915358E+02</pdfrwt>
<pdfrwt beam="1">  1       -2 0.99535139E+00 0.14915358E+02</pdfrwt>
<totfact>-0.33542819E-13</totfact>
</mgrwt>
</event>
<event>
 4    1 -0.5010510E-019  0.1494274E+02  0.7818608E-02  0.1869821E+00
          2   -1    0    0  501    0  0.00000000000E+00  0.00000000000E+00  0.11858922258E+03  0.11858922260E+03  0.25500000000E-02 0. -1.
         -2   -1    0    0    0  501 -0.00000000000E+00 -0.00000000000E+00 -0.47070876519E+00  0.47071567228E+00  0.25500000000E-02 0.  1.
         31    1    1    2    0    0  0.42813362198E+00 -0.38842561794E+00  0.57718865189E+02  0.58200176096E+02  0.74470750000E+01 0.  1.
        -31    1    1    2    0    0 -0.42813362198E+00  0.38842561794E+00  0.60399648622E+02  0.60859762179E+02  0.74470750000E+01 0. -1.
<mgrwt>
<rscale>  0 0.14942744E+02</rscale>
<asrwt>0</asrwt>
<pdfrwt beam="1">  1        2 0.98447087E+00 0.14942744E+02</pdfrwt>
<pdfrwt beam="2">  1       -2 0.99968281E+00 0.14942744E+02</pdfrwt>
<totfact>-0.41164895E-14</totfact>
</mgrwt>
</event>
<event>
 4    1  0.5010510E-019  0.1491280E+02  0.7818608E-02  0.1870741E+00
         -2   -1    0    0    0  501 -0.00000000000E+00  0.00000000000E+00  0.11856095599E+03  0.11856095601E+03  0.25500000000E-02 0.  1.
          2   -1    0    0  501    0  0.00000000000E+00 -0.00000000000E+00 -0.46893575172E+00  0.46894268492E+00  0.25500000000E-02 0. -1.
         31    1    1    2    0    0  0.19517316883E+00 -0.12690956544E+00  0.56722235533E+02  0.57209484603E+02  0.74470750000E+01 0. -1.
        -31    1    1    2    0    0 -0.19517316883E+00  0.12690956544E+00  0.61369784701E+02  0.61820414095E+02  0.74470750000E+01 0.  1.
<mgrwt>
<rscale>  0 0.14912798E+02</rscale>
<asrwt>0</asrwt>
<pdfrwt beam="2">  1        2 0.99593127E+00 0.14912798E+02</pdfrwt>
<pdfrwt beam="1">  1       -2 0.98422248E+00 0.14912798E+02</pdfrwt>
<totfact> 0.53342260E-13</totfact>
</mgrwt>
</event>
<event>
 4    1  0.5010510E-019  0.1491025E+02  0.7818608E-02  0.1870820E+00
         -2   -1    0    0    0  501 -0.00000000000E+00  0.00000000000E+00  0.11867970041E+03  0.11867970043E+03  0.25500000000E-02 0. -1.
          2   -1    0    0  501    0  0.00000000000E+00 -0.00000000000E+00 -0.46830622527E+00  0.46831316780E+00  0.25500000000E-02 0.  1.
         31    1    1    2    0    0 -0.30608263749E+00  0.14793316060E+00  0.59633399699E+02  0.60097561153E+02  0.74470750000E+01 0. -1.
        -31    1    1    2    0    0  0.30608263749E+00 -0.14793316060E+00  0.58577994482E+02  0.59050452449E+02  0.74470750000E+01 0. -1.
<mgrwt>
<rscale>  0 0.14910246E+02</rscale>
<asrwt>0</asrwt>
<pdfrwt beam="2">  1        2 0.99460346E+00 0.14910246E+02</pdfrwt>
<pdfrwt beam="1">  1       -2 0.98519914E+00 0.14910246E+02</pdfrwt>
<totfact> 0.47592482E-13</totfact>
</mgrwt>
</event>
<event>
 4    1 -0.5010510E-019  0.1500073E+02  0.7818608E-02  0.1868046E+00
          2   -1    0    0  501    0  0.00000000000E+00  0.00000000000E+00  0.11986006102E+03  0.11986006105E+03  0.25500000000E-02 0. -1.
         -2   -1    0    0    0  501 -0.00000000000E+00 -0.00000000000E+00 -0.46933959001E+00  0.46934651725E+00  0.25500000000E-02 0.  1.
         31    1    1    2    0    0  0.61440258657E+00  0.63817780598E+00  0.58823891855E+02  0.59300033225E+02  0.74470750000E+01 0.  1.
        -31    1    1    2    0    0 -0.61440258657E+00 -0.63817780598E+00  0.60566829580E+02  0.61029374344E+02  0.74470750000E+01 0.  1.
<mgrwt>
<rscale>  0 0.15000732E+02</rscale>
<asrwt>0</asrwt>
<pdfrwt beam="1">  1        2 0.99496773E+00 0.15000732E+02</pdfrwt>
<pdfrwt beam="2">  1       -2 0.99682815E+00 0.15000732E+02</pdfrwt>
<totfact>-0.99328141E-14</totfact>
</mgrwt>
</event>
<event>
 4    1 -0.5010510E-019  0.1489950E+02  0.7818608E-02  0.1871151E+00
         -2   -1    0    0    0  501 -0.00000000000E+00  0.00000000000E+00  0.11963792734E+03  0.11963792737E+03  0.25500000000E-02 0. -1.
          2   -1    0    0  501    0  0.00000000000E+00 -0.00000000000E+00 -0.46388593771E+00  0.46389294638E+00  0.25500000000E-02 0.  1.
         31    1    1    2    0    0 -0.17250795169E+00 -0.94801957141E-01  0.59854629330E+02  0.60316451526E+02  0.74470750000E+01 0.  1.
        -31    1    1    2    0    0  0.17250795169E+00  0.94801957141E-01  0.59319412074E+02  0.59785368790E+02  0.74470750000E+01 0.  1.
<mgrwt>
<rscale>  0 0.14899500E+02</rscale>
<asrwt>0</asrwt>
<pdfrwt beam="2">  1        2 0.98528294E+00 0.14899500E+02</pdfrwt>
<pdfrwt beam="1">  1       -2 0.99308588E+00 0.14899500E+02</pdfrwt>
<totfact>-0.29231973E-13</totfact>
</mgrwt>
</event>
<event>
 4    1 -0.5010510E-019  0.1497602E+02  0.7818608E-02  0.1868801E+00
          2   -1    0    0  501    0  0.00000000000E+00  0.00000000000E+00  0.11972707691E+03  0.11972707693E+03  0.25500000000E-02 0. -1.
         -2   -1    0    0    0  501 -0.00000000000E+00 -0.00000000000E+00 -0.46831408744E+00  0.46832102985E+00  0.25500000000E-02 0.  1.
         31    1    1    2    0    0  0.13395879705E+00 -0.69748674773E+00  0.57004829944E+02  0.57493599606E+02  0.74470750000E+01 0.  1.
        -31    1    1    2    0    0 -0.13395879705E+00  0.69748674773E+00  0.62253932875E+02  0.62701798356E+02  0.74470750000E+01 0. -1.
<mgrwt>
<rscale>  0 0.14976020E+02</rscale>
<asrwt>0</asrwt>
<pdfrwt beam="1">  1        2 0.99385965E+00 0.14976020E+02</pdfrwt>
<pdfrwt beam="2">  1       -2 0.99465430E+00 0.14976020E+02</pdfrwt>
<totfact>-0.13237111E-13</totfact>
</mgrwt>
</event>
<event>
 4    1 -0.5010510E-019  0.1502993E+02  0.7818608E-02  0.1867157E+00
          2   -1    0    0  501    0  0.00000000000E+00  0.00000000000E+00  0.12013869937E+03  0.12013869940E+03  0.25500000000E-02 0.  1.
         -2   -1    0    0    0  501 -0.00000000000E+00 -0.00000000000E+00 -0.47007574229E+00  0.47008265867E+00  0.25500000000E-02 0. -1.
         31    1    1    2    0    0  0.44580848741E+00  0.81832412786E+00  0.56753655653E+02  0.57247748913E+02  0.74470750000E+01 0. -1.
        -31    1    1    2    0    0 -0.44580848741E+00 -0.81832412786E+00  0.62914967977E+02  0.63361033145E+02  0.74470750000E+01 0. -1.
<mgrwt>
<rscale>  0 0.15029931E+02</rscale>
<asrwt>0</asrwt>
<pdfrwt beam="1">  1        2 0.99727780E+00 0.15029931E+02</pdfrwt>
<pdfrwt beam="2">  1       -2 0.99839457E+00 0.15029931E+02</pdfrwt>
<totfact>-0.40800136E-14</totfact>
</mgrwt>
</event>
<event>
 4    1 -0.5010510E-019  0.1491194E+02  0.7818608E-02  0.1870768E+00
         -2   -1    0    0    0  501 -0.00000000000E+00  0.00000000000E+00  0.11992554083E+03  0.11992554086E+03  0.25500000000E-02 0.  1.
          2   -1    0    0  501    0  0.00000000000E+00 -0.00000000000E+00 -0.46354627417E+00  0.46355328798E+00  0.25500000000E-02 0. -1.
         31    1    1    2    0    0 -0.27529391234E+00 -0.86809767886E-01  0.57940012848E+02  0.58417354763E+02  0.74470750000E+01 0.  1.
        -31    1    1    2    0    0  0.27529391234E+00  0.86809767886E-01  0.61521981707E+02  0.61971739381E+02  0.74470750000E+01 0. -1.
<mgrwt>
<rscale>  0 0.14911936E+02</rscale>
<asrwt>0</asrwt>
<pdfrwt beam="2">  1        2 0.98457341E+00 0.14911936E+02</pdfrwt>
<pdfrwt beam="1">  1       -2 0.99546126E+00 0.14911936E+02</pdfrwt>
<totfact>-0.36527535E-13</totfact>
</mgrwt>
</event>
<event>
 4    1 -0.5010510E-019  0.1495542E+02  0.7818608E-02  0.1869432E+00
         -2   -1    0    0    0  501 -0.00000000000E+00  0.00000000000E+00  0.11972485088E+03  0.11972485090E+03  0.25500000000E-02 0.  1.
          2   -1    0    0  501    0  0.00000000000E+00 -0.00000000000E+00 -0.46703542274E+00  0.46704238415E+00  0.25500000000E-02 0. -1.
         31    1    1    2    0    0 -0.57501732495E+00 -0.27340235975E+00  0.57798970496E+02  0.58280230870E+02  0.74470750000E+01 0.  1.
        -31    1    1    2    0    0  0.57501732495E+00  0.27340235975E+00  0.61458844959E+02  0.61911662419E+02  0.74470750000E+01 0. -1.
<mgrwt>
<rscale>  0 0.14955423E+02</rscale>
<asrwt>0</asrwt>
<pdfrwt beam="2">  1        2 0.99194906E+00 0.14955423E+02</pdfrwt>
<pdfrwt beam="1">  1       -2 0.99383067E+00 0.14955423E+02</pdfrwt>
<totfact>-0.14679388E-13</totfact>
</mgrwt>
</event>
<event>
 4    1 -0.5010510E-019  0.1495384E+02  0.7818608E-02  0.1869480E+00
         -2   -1    0    0    0  501 -0.00000000000E+00  0.00000000000E+00  0.11989070690E+03  0.11989070693E+03  0.25500000000E-02 0. -1.
          2   -1    0    0  501    0  0.00000000000E+00 -0.00000000000E+00 -0.46629046234E+00  0.46629743487E+00  0.25500000000E-02 0.  1.
         31    1    1    2    0    0 -0.45943250864E+00 -0.45747142219E+00  0.60985561981E+02  0.61441989344E+02  0.74470750000E+01 0. -1.
        -31    1    1    2    0    0  0.45943250864E+00  0.45747142219E+00  0.58438854461E+02  0.58915015023E+02  0.74470750000E+01 0.  1.
<mgrwt>
<rscale>  0 0.14953838E+02</rscale>
<asrwt>0</asrwt>
<pdfrwt beam="2">  1        2 0.99037829E+00 0.14953838E+02</pdfrwt>
<pdfrwt beam="1">  1       -2 0.99519592E+00 0.14953838E+02</pdfrwt>
<totfact>-0.17141586E-13</totfact>
</mgrwt>
</event>
<event>
 4    1 -0.5010510E-019  0.1491568E+02  0.7818608E-02  0.1870653E+00
          2   -1    0    0  501    0  0.00000000000E+00  0.00000000000E+00  0.11871181739E+03  0.11871181742E+03  0.25500000000E-02 0. -1.
         -2   -1    0    0    0  501 -0.00000000000E+00 -0.00000000000E+00 -0.46852061115E+00  0.46852755050E+00  0.25500000000E-02 0.  1.
         31    1    1    2    0    0  0.33606351280E-01  0.24957310981E+00  0.56633012000E+02  0.57121102846E+02  0.74470750000E+01 0. -1.
        -31    1    1    2    0    0 -0.33606351280E-01 -0.24957310981E+00  0.61610284777E+02  0.62059242120E+02  0.74470750000E+01 0. -1.
<mgrwt>
<rscale>  0 0.14915676E+02</rscale>
<asrwt>0</asrwt>
<pdfrwt beam="1">  1        2 0.98546648E+00 0.14915676E+02</pdfrwt>
<pdfrwt beam="2">  1       -2 0.99505805E+00 0.14915676E+02</pdfrwt>
<totfact>-0.32166680E-13</totfact>
</mgrwt>
</event>
<event>
 4    1  0.5010510E-019  0.1490405E+02  0.7818608E-02  0.1871011E+00
         -2   -1    0    0    0  501 -0.00000000000E+00  0.00000000000E+00  0.11915221298E+03  0.11915221301E+03  0.25500000000E-02 0. -1.
          2   -1    0    0  501    0  0.00000000000E+00 -0.00000000000E+00 -0.46606145002E+00  0.46606842598E+00  0.25500000000E-02 0.  1.
         31    1    1    2    0    0  0.19736895085E+00  0.63379592755E-01  0.60751030360E+02  0.61206123773E+02  0.74470750000E+01 0. -1.
        -31    1    1    2    0    0 -0.19736895085E+00 -0.63379592755E-01  0.57935121170E+02  0.58412157660E+02  0.74470750000E+01 0.  1.
<mgrwt>
<rscale>  0 0.14904049E+02</rscale>
<asrwt>0</asrwt>
<pdfrwt beam="2">  1        2 0.98987002E+00 0.14904049E+02</pdfrwt>
<pdfrwt beam="1">  1       -2 0.98908764E+00 0.14904049E+02</pdfrwt>
<totfact> 0.10041593E-13</totfact>
</mgrwt>
</event>
<event>
 4    1  0.5010510E-019  0.1493828E+02  0.7818608E-02  0.1869958E+00
          2   -1    0    0  501    0  0.00000000000E+00  0.00000000000E+00  0.11993819576E+03  0.11993819579E+03  0.25500000000E-02 0. -1.
         -2   -1    0    0    0  501 -0.00000000000E+00 -0.00000000000E+00 -0.46513619618E+00  0.46514318602E+00  0.25500000000E-02 0.  1.
         31    1    1    2    0    0 -0.39948020370E+00  0.40891130022E+00  0.60123046642E+02  0.60585199978E+02  0.74470750000E+01 0.  1.
        -31    1    1    2    0    0  0.39948020370E+00 -0.40891130022E+00  0.59350012924E+02  0.59818138996E+02  0.74470750000E+01 0.  1.
<mgrwt>
<rscale>  0 0.14938275E+02</rscale>
<asrwt>0</asrwt>
<pdfrwt beam="1">  1        2 0.99557905E+00 0.14938275E+02</pdfrwt>
<pdfrwt beam="2">  1       -2 0.98793771E+00 0.14938275E+02</pdfrwt>
<totfact> 0.14677159E-13</totfact>
</mgrwt>
</event>
<event>
 4    1 -0.5010510E-019  0.1499338E+02  0.7818608E-02  0.1868271E+00
          2   -1    0    0  501    0  0.00000000000E+00  0.00000000000E+00  0.11967301783E+03  0.11967301785E+03  0.25500000000E-02 0. -1.
         -2   -1    0    0    0  501 -0.00000000000E+00 -0.00000000000E+00 -0.46961243176E+00  0.46961935497E+00  0.25500000000E-02 0.  1.
         31    1    1    2    0    0 -0.26227120898E+00 -0.73387343049E+00  0.62535746883E+02  0.62982425491E+02  0.74470750000E+01 0. -1.
        -31    1    1    2    0    0  0.26227120898E+00  0.73387343049E+00  0.56667658511E+02  0.57160211717E+02  0.74470750000E+01 0. -1.
<mgrwt>
<rscale>  0 0.14993379E+02</rscale>
<asrwt>0</asrwt>
<pdfrwt beam="1">  1        2 0.99342338E+00 0.14993379E+02</pdfrwt>
<pdfrwt beam="2">  1       -2 0.99739928E+00 0.14993379E+02</pdfrwt>
<totfact>-0.99230806E-14</totfact>
</mgrwt>
</event>
<event>
 4    1  0.5010510E-019  0.1491378E+02  0.7818608E-02  0.1870711E+00
          2   -1    0    0  501    0  0.00000000000E+00  0.00000000000E+00  0.11928899217E+03  0.11928899220E+03  0.25500000000E-02 0. -1.
         -2   -1    0    0    0  501 -0.00000000000E+00 -0.00000000000E+00 -0.46613486094E+00  0.46614183580E+00  0.25500000000E-02 0.  1.
         31    1    1    2    0    0 -0.32612179526E+00 -0.16554781957E+00  0.60308813709E+02  0.60767966056E+02  0.74470750000E+01 0.  1.
        -31    1    1    2    0    0  0.32612179526E+00  0.16554781957E+00  0.58514043604E+02  0.58987167982E+02  0.74470750000E+01 0. -1.
<mgrwt>
<rscale>  0 0.14913776E+02</rscale>
<asrwt>0</asrwt>
<pdfrwt beam="1">  1        2 0.99021924E+00 0.14913776E+02</pdfrwt>
<pdfrwt beam="2">  1       -2 0.99002975E+00 0.14913776E+02</pdfrwt>
<totfact> 0.97577205E-15</totfact>
</mgrwt>
</event>
<event>
 4    1 -0.5010510E-019  0.1496645E+02  0.7818608E-02  0.1869094E+00
         -2   -1    0    0    0  501 -0.00000000000E+00  0.00000000000E+00  0.12021312591E+03  0.12021312594E+03  0.25500000000E-02 0.  1.
          2   -1    0    0  501    0  0.00000000000E+00 -0.00000000000E+00 -0.46582484701E+00  0.46583182651E+00  0.25500000000E-02 0. -1.
         31    1    1    2    0    0 -0.31416440010E+00  0.52129761856E+00  0.63191451951E+02  0.63631666458E+02  0.74470750000E+01 0.  1.
        -31    1    1    2    0    0  0.31416440010E+00 -0.52129761856E+00  0.56555849111E+02  0.57047291305E+02  0.74470750000E+01 0. -1.
<mgrwt>
<rscale>  0 0.14966454E+02</rscale>
<asrwt>0</asrwt>
<pdfrwt beam="2">  1        2 0.98940346E+00 0.14966454E+02</pdfrwt>
<pdfrwt beam="1">  1       -2 0.99785806E+00 0.14966454E+02</pdfrwt>
<totfact>-0.11898740E-13</totfact>
</mgrwt>
</event>
<event>
 4    1 -0.5010510E-019  0.1502178E+02  0.7818608E-02  0.1867405E+00
         -2   -1    0    0    0  501 -0.00000000000E+00  0.00000000000E+00  0.12039160026E+03  0.12039160029E+03  0.25500000000E-02 0.  1.
          2   -1    0    0  501    0  0.00000000000E+00 -0.00000000000E+00 -0.46857944189E+00  0.46858638037E+00  0.25500000000E-02 0. -1.
         31    1    1    2    0    0  0.96875930062E+00 -0.42602195971E-01  0.59002279573E+02  0.59478300501E+02  0.74470750000E+01 0. -1.
        -31    1    1    2    0    0 -0.96875930062E+00  0.42602195971E-01  0.60920741247E+02  0.61381886169E+02  0.74470750000E+01 0. -1.
<mgrwt>
<rscale>  0 0.15021777E+02</rscale>
<asrwt>0</asrwt>
<pdfrwt beam="2">  1        2 0.99523710E+00 0.15021777E+02</pdfrwt>
<pdfrwt beam="1">  1       -2 0.99935658E+00 0.15021777E+02</pdfrwt>
<totfact>-0.25048522E-14</totfact>
</mgrwt>
</event>
<event>
 4    1  0.5010510E-019  0.1495657E+02  0.7818608E-02  0.1869397E+00
          2   -1    0    0  501    0  0.00000000000E+00  0.00000000000E+00  0.12023985314E+03  0.12023985317E+03  0.25500000000E-02 0. -1.
         -2   -1    0    0    0  501 -0.00000000000E+00 -0.00000000000E+00 -0.46510666585E+00  0.46511365613E+00  0.25500000000E-02 0.  1.
         31    1    1    2    0    0  0.40603012447E+00  0.50818066307E+00  0.58218805607E+02  0.58696774702E+02  0.74470750000E+01 0.  1.
        -31    1    1    2    0    0 -0.40603012447E+00 -0.50818066307E+00  0.61555940868E+02  0.62008192122E+02  0.74470750000E+01 0.  1.
<mgrwt>
<rscale>  0 0.14956575E+02</rscale>
<asrwt>0</asrwt>
<pdfrwt beam="1">  1        2 0.99807312E+00 0.14956575E+02</pdfrwt>
<pdfrwt beam="2">  1       -2 0.98788481E+00 0.14956575E+02</pdfrwt>
<totfact> 0.86095016E-14</totfact>
</mgrwt>
</event>
<event>
 4    1 -0.5010510E-019  0.1502955E+02  0.7818608E-02  0.1867168E+00
         -2   -1    0    0    0  501 -0.00000000000E+00  0.00000000000E+00  0.12012822319E+03  0.12012822322E+03  0.25500000000E-02 0.  1.
          2   -1    0    0  501    0  0.00000000000E+00 -0.00000000000E+00 -0.47009259112E+00  0.47009950726E+00  0.25500000000E-02 0. -1.
         31    1    1    2    0    0 -0.28490789634E+00  0.96174488202E+00  0.60488535223E+02  0.60953490017E+02  0.74470750000E+01 0. -1.
        -31    1    1    2    0    0  0.28490789634E+00 -0.96174488202E+00  0.59169595375E+02  0.59644832706E+02  0.74470750000E+01 0.  1.
<mgrwt>
<rscale>  0 0.15029545E+02</rscale>
<asrwt>0</asrwt>
<pdfrwt beam="2">  1        2 0.99842988E+00 0.15029545E+02</pdfrwt>
<pdfrwt beam="1">  1       -2 0.99719131E+00 0.15029545E+02</pdfrwt>
<totfact>-0.41352730E-14</totfact>
</mgrwt>
</event>
<event>
 4    1  0.5010510E-019  0.1490375E+02  0.7818608E-02  0.1871020E+00
          2   -1    0    0  501    0  0.00000000000E+00  0.00000000000E+00  0.11997983984E+03  0.11997983986E+03  0.25500000000E-02 0. -1.
         -2   -1    0    0    0  501 -0.00000000000E+00 -0.00000000000E+00 -0.46282790682E+00  0.46283493152E+00  0.25500000000E-02 0.  1.
         31    1    1    2    0    0  0.21759523389E+00 -0.85005523622E-01  0.58706588854E+02  0.59177504802E+02  0.74470750000E+01 0. -1.
        -31    1    1    2    0    0 -0.21759523389E+00  0.85005523622E-01  0.60810423074E+02  0.61265169992E+02  0.74470750000E+01 0. -1.
<mgrwt>
<rscale>  0 0.14903750E+02</rscale>
<asrwt>0</asrwt>
<pdfrwt beam="1">  1        2 0.99590430E+00 0.14903750E+02</pdfrwt>
<pdfrwt beam="2">  1       -2 0.98305519E+00 0.14903750E+02</pdfrwt>
<totfact> 0.70569095E-13</totfact>
</mgrwt>
</event>
<event>
 4    1 -0.5010510E-019  0.1498054E+02  0.7818608E-02  0.1868663E+00
          2   -1    0    0  501    0  0.00000000000E+00  0.00000000000E+00  0.11994844110E+03  0.11994844113E+03  0.25500000000E-02 0. -1.
         -2   -1    0    0    0  501 -0.00000000000E+00 -0.00000000000E+00 -0.46773215197E+00  0.46773910301E+00  0.25500000000E-02 0.  1.
         31    1    1    2    0    0  0.81770899028E-02 -0.30179469007E+00  0.65723744802E+02  0.66144997571E+02  0.74470750000E+01 0. -1.
        -31    1    1    2    0    0 -0.81770899028E-02  0.30179469007E+00  0.53756964150E+02  0.54271182662E+02  0.74470750000E+01 0.  1.
<mgrwt>
<rscale>  0 0.14980542E+02</rscale>
<asrwt>0</asrwt>
<pdfrwt beam="1">  1        2 0.99568523E+00 0.14980542E+02</pdfrwt>
<pdfrwt beam="2">  1       -2 0.99343028E+00 0.14980542E+02</pdfrwt>
<totfact>-0.10212838E-13</totfact>
</mgrwt>
</event>
<event>
 4    1 -0.5010510E-019  0.1496954E+02  0.7818608E-02  0.1868999E+00
          2   -1    0    0  501    0  0.00000000000E+00  0.00000000000E+00  0.11951392445E+03  0.11951392448E+03  0.25500000000E-02 0. -1.
         -2   -1    0    0    0  501 -0.00000000000E+00 -0.00000000000E+00 -0.46874367332E+00  0.46875060937E+00  0.25500000000E-02 0.  1.
         31    1    1    2    0    0 -0.56926031459E+00 -0.33454211168E+00  0.62377952247E+02  0.62824388801E+02  0.74470750000E+01 0.  1.
        -31    1    1    2    0    0  0.56926031459E+00  0.33454211168E+00  0.56667228534E+02  0.57158286289E+02  0.74470750000E+01 0.  1.
<mgrwt>
<rscale>  0 0.14969544E+02</rscale>
<asrwt>0</asrwt>
<pdfrwt beam="1">  1        2 0.99210071E+00 0.14969544E+02</pdfrwt>
<pdfrwt beam="2">  1       -2 0.99555620E+00 0.14969544E+02</pdfrwt>
<totfact>-0.14657086E-13</totfact>
</mgrwt>
</event>
<event>
 4    1 -0.5010510E-019  0.1496361E+02  0.7818608E-02  0.1869181E+00
          2   -1    0    0  501    0  0.00000000000E+00  0.00000000000E+00  0.11990768729E+03  0.11990768732E+03  0.25500000000E-02 0. -1.
         -2   -1    0    0    0  501 -0.00000000000E+00 -0.00000000000E+00 -0.46683373549E+00  0.46684069991E+00  0.25500000000E-02 0.  1.
         31    1    1    2    0    0  0.45183955156E+00  0.56060631781E+00  0.59695124836E+02  0.60162158319E+02  0.74470750000E+01 0. -1.
        -31    1    1    2    0    0 -0.45183955156E+00 -0.56060631781E+00  0.59745728718E+02  0.60212369697E+02  0.74470750000E+01 0.  1.
<mgrwt>
<rscale>  0 0.14963606E+02</rscale>
<asrwt>0</asrwt>
<pdfrwt beam="1">  1        2 0.99534082E+00 0.14963606E+02</pdfrwt>
<pdfrwt beam="2">  1       -2 0.99152823E+00 0.14963606E+02</pdfrwt>
<totfact>-0.60600695E-14</totfact>
</mgrwt>
</event>
<event>
 4    1 -0.5010510E-019  0.1494653E+02  0.7818608E-02  0.1869705E+00
          2   -1    0    0  501    0  0.00000000000E+00  0.00000000000E+00  0.11904416281E+03  0.11904416284E+03  0.25500000000E-02 0. -1.
         -2   -1    0    0    0  501 -0.00000000000E+00 -0.00000000000E+00 -0.46914750012E+00  0.46915443019E+00  0.25500000000E-02 0.  1.
         31    1    1    2    0    0  0.54254735185E+00 -0.30218866240E+00  0.58717289252E+02  0.59190917030E+02  0.74470750000E+01 0. -1.
        -31    1    1    2    0    0 -0.54254735185E+00  0.30218866240E+00  0.59857726059E+02  0.60322400239E+02  0.74470750000E+01 0. -1.
<mgrwt>
<rscale>  0 0.14946530E+02</rscale>
<asrwt>0</asrwt>
<pdfrwt beam="1">  1        2 0.98821973E+00 0.14946530E+02</pdfrwt>
<pdfrwt beam="2">  1       -2 0.99639514E+00 0.14946530E+02</pdfrwt>
<totfact>-0.19384147E-13</totfact>
</mgrwt>
</event>
<event>
 4    1 -0.5010510E-019  0.1499272E+02  0.7818608E-02  0.1868291E+00
         -2   -1    0    0    0  501 -0.00000000000E+00  0.00000000000E+00  0.12027410227E+03  0.12027410230E+03  0.25500000000E-02 0. -1.
          2   -1    0    0  501    0  0.00000000000E+00 -0.00000000000E+00 -0.46722418554E+00  0.46723114414E+00  0.25500000000E-02 0.  1.
         31    1    1    2    0    0  0.71304459243E+00  0.11761750494E+00  0.63630650371E+02  0.64069031982E+02  0.74470750000E+01 0. -1.
        -31    1    1    2    0    0 -0.71304459243E+00 -0.11761750494E+00  0.56176227718E+02  0.56672301463E+02  0.74470750000E+01 0. -1.
<mgrwt>
<rscale>  0 0.14992717E+02</rscale>
<asrwt>0</asrwt>
<pdfrwt beam="2">  1        2 0.99236603E+00 0.14992717E+02</pdfrwt>
<pdfrwt beam="1">  1       -2 0.99837382E+00 0.14992717E+02</pdfrwt>
<totfact>-0.73822983E-14</totfact>
</mgrwt>
</event>
<event>
 4    1 -0.5010510E-019  0.1492211E+02  0.7818608E-02  0.1870455E+00
          2   -1    0    0  501    0  0.00000000000E+00  0.00000000000E+00  0.11926965556E+03  0.11926965559E+03  0.25500000000E-02 0. -1.
         -2   -1    0    0    0  501 -0.00000000000E+00 -0.00000000000E+00 -0.46673147825E+00  0.46673844419E+00  0.25500000000E-02 0.  1.
         31    1    1    2    0    0  0.18233541288E+00  0.35809020890E+00  0.61139571672E+02  0.61592756271E+02  0.74470750000E+01 0. -1.
        -31    1    1    2    0    0 -0.18233541288E+00 -0.35809020890E+00  0.57663352410E+02  0.58143637761E+02  0.74470750000E+01 0.  1.
<mgrwt>
<rscale>  0 0.14922107E+02</rscale>
<asrwt>0</asrwt>
<pdfrwt beam="1">  1        2 0.99006428E+00 0.14922107E+02</pdfrwt>
<pdfrwt beam="2">  1       -2 0.99129133E+00 0.14922107E+02</pdfrwt>
<totfact>-0.80199166E-14</totfact>
</mgrwt>
</event>
<event>
 4    1 -0.5010510E-019  0.1501924E+02  0.7818608E-02  0.1867482E+00
         -2   -1    0    0    0  501 -0.00000000000E+00  0.00000000000E+00  0.12019983677E+03  0.12019983680E+03  0.25500000000E-02 0.  1.
          2   -1    0    0  501    0  0.00000000000E+00 -0.00000000000E+00 -0.46916824441E+00  0.46917517417E+00  0.25500000000E-02 0. -1.
         31    1    1    2    0    0  0.82284139238E+00 -0.32053920008E+00  0.63034828853E+02  0.63479354029E+02  0.74470750000E+01 0. -1.
        -31    1    1    2    0    0 -0.82284139238E+00  0.32053920008E+00  0.56695839677E+02  0.57189657947E+02  0.74470750000E+01 0. -1.
<mgrwt>
<rscale>  0 0.15019236E+02</rscale>
<asrwt>0</asrwt>
<pdfrwt beam="2">  1        2 0.99647664E+00 0.15019236E+02</pdfrwt>
<pdfrwt beam="1">  1       -2 0.99777582E+00 0.15019236E+02</pdfrwt>
<totfact>-0.63206416E-14</totfact>
</mgrwt>
</event>
<event>
 4    1  0.5010510E-019  0.1489654E+02  0.7818608E-02  0.1871242E+00
          2   -1    0    0  501    0  0.00000000000E+00  0.00000000000E+00  0.11914400026E+03  0.11914400029E+03  0.25500000000E-02 0. -1.
         -2   -1    0    0    0  501 -0.00000000000E+00 -0.00000000000E+00 -0.46562408629E+00  0.46563106880E+00  0.25500000000E-02 0.  1.
         31    1    1    2    0    0 -0.23029899146E-02 -0.37646992842E-01  0.58311342009E+02  0.58784972191E+02  0.74470750000E+01 0.  1.
        -31    1    1    2    0    0  0.23029899146E-02  0.37646992842E-01  0.60367034166E+02  0.60824659166E+02  0.74470750000E+01 0. -1.
<mgrwt>
<rscale>  0 0.14896541E+02</rscale>
<asrwt>0</asrwt>
<pdfrwt beam="1">  1        2 0.98901612E+00 0.14896541E+02</pdfrwt>
<pdfrwt beam="2">  1       -2 0.98894446E+00 0.14896541E+02</pdfrwt>
<totfact> 0.12664632E-13</totfact>
</mgrwt>
</event>
<event>
 4    1 -0.5010510E-019  0.1495525E+02  0.7818608E-02  0.1869437E+00
          2   -1    0    0  501    0  0.00000000000E+00  0.00000000000E+00  0.11917000854E+03  0.11917000857E+03  0.25500000000E-02 0.  1.
         -2   -1    0    0    0  501 -0.00000000000E+00 -0.00000000000E+00 -0.46919885348E+00  0.46920578279E+00  0.25500000000E-02 0. -1.
         31    1    1    2    0    0  0.19255382331E+00 -0.21965858226E+00  0.54480398528E+02  0.54987799344E+02  0.74470750000E+01 0. -1.
        -31    1    1    2    0    0 -0.19255382331E+00  0.21965858226E+00  0.64220411161E+02  0.64651415009E+02  0.74470750000E+01 0.  1.
<mgrwt>
<rscale>  0 0.14955246E+02</rscale>
<asrwt>0</asrwt>
<pdfrwt beam="1">  1        2 0.98926073E+00 0.14955246E+02</pdfrwt>
<pdfrwt beam="2">  1       -2 0.99650791E+00 0.14955246E+02</pdfrwt>
<totfact>-0.16892244E-13</totfact>
</mgrwt>
</event>
<event>
 4    1 -0.5010510E-019  0.1496309E+02  0.7818608E-02  0.1869197E+00
          2   -1    0    0  501    0  0.00000000000E+00  0.00000000000E+00  0.11964179790E+03  0.11964179793E+03  0.25500000000E-02 0.  1.
         -2   -1    0    0    0  501 -0.00000000000E+00 -0.00000000000E+00 -0.46783923370E+00  0.46784618315E+00  0.25500000000E-02 0. -1.
         31    1    1    2    0    0 -0.54517406155E+00  0.25068023661E+00  0.62742794371E+02  0.63186052471E+02  0.74470750000E+01 0.  1.
        -31    1    1    2    0    0  0.54517406155E+00 -0.25068023661E+00  0.56431164299E+02  0.56923591643E+02  0.74470750000E+01 0.  1.
<mgrwt>
<rscale>  0 0.14963094E+02</rscale>
<asrwt>0</asrwt>
<pdfrwt beam="1">  1        2 0.99315057E+00 0.14963094E+02</pdfrwt>
<pdfrwt beam="2">  1       -2 0.99364694E+00 0.14963094E+02</pdfrwt>
<totfact>-0.13235029E-13</totfact>
</mgrwt>
</event>
<event>
 4    1  0.5010510E-019  0.1491330E+02  0.7818608E-02  0.1870726E+00
          2   -1    0    0  501    0  0.00000000000E+00  0.00000000000E+00  0.12035762487E+03  0.12035762490E+03  0.25500000000E-02 0. -1.
         -2   -1    0    0    0  501 -0.00000000000E+00 -0.00000000000E+00 -0.46196658013E+00  0.46197361792E+00  0.25500000000E-02 0.  1.
         31    1    1    2    0    0 -0.34857245570E+00 -0.85495897222E-01  0.58993066062E+02  0.59462337507E+02  0.74470750000E+01 0. -1.
        -31    1    1    2    0    0  0.34857245570E+00  0.85495897222E-01  0.60902592226E+02  0.61357261007E+02  0.74470750000E+01 0. -1.
<mgrwt>
<rscale>  0 0.14913300E+02</rscale>
<asrwt>0</asrwt>
<pdfrwt beam="1">  1        2 0.99902097E+00 0.14913300E+02</pdfrwt>
<pdfrwt beam="2">  1       -2 0.98124458E+00 0.14913300E+02</pdfrwt>
<totfact> 0.34168821E-13</totfact>
</mgrwt>
</event>
<event>
 4    1 -0.5010510E-019  0.1494908E+02  0.7818608E-02  0.1869626E+00
          2   -1    0    0  501    0  0.00000000000E+00  0.00000000000E+00  0.11880417013E+03  0.11880417016E+03  0.25500000000E-02 0. -1.
         -2   -1    0    0    0  501 -0.00000000000E+00 -0.00000000000E+00 -0.47025588125E+00  0.47026279499E+00  0.25500000000E-02 0.  1.
         31    1    1    2    0    0 -0.19860452654E+00  0.27030476418E+00  0.54816259774E+02  0.55320825827E+02  0.74470750000E+01 0.  1.
        -31    1    1    2    0    0  0.19860452654E+00 -0.27030476418E+00  0.63517654477E+02  0.63953607129E+02  0.74470750000E+01 0. -1.
<mgrwt>
<rscale>  0 0.14949083E+02</rscale>
<asrwt>0</asrwt>
<pdfrwt beam="1">  1        2 0.98624446E+00 0.14949083E+02</pdfrwt>
<pdfrwt beam="2">  1       -2 0.99873193E+00 0.14949083E+02</pdfrwt>
<totfact>-0.11505978E-13</totfact>
</mgrwt>
</event>
<event>
 4    1 -0.5010510E-019  0.1498696E+02  0.7818608E-02  0.1868467E+00
          2   -1    0    0  501    0  0.00000000000E+00  0.00000000000E+00  0.11971282080E+03  0.11971282082E+03  0.25500000000E-02 0.  1.
         -2   -1    0    0    0  501 -0.00000000000E+00 -0.00000000000E+00 -0.46905453825E+00  0.46906146970E+00  0.25500000000E-02 0. -1.
         31    1    1    2    0    0 -0.53359425298E+00  0.29481375551E+00  0.55073592423E+02  0.55578153499E+02  0.74470750000E+01 0. -1.
        -31    1    1    2    0    0  0.53359425298E+00 -0.29481375551E+00  0.64170173837E+02  0.64603728795E+02  0.74470750000E+01 0.  1.
<mgrwt>
<rscale>  0 0.14986962E+02</rscale>
<asrwt>0</asrwt>
<pdfrwt beam="1">  1        2 0.99374789E+00 0.14986962E+02</pdfrwt>
<pdfrwt beam="2">  1       -2 0.99622032E+00 0.14986962E+02</pdfrwt>
<totfact>-0.12186036E-13</totfact>
</mgrwt>
</event>
<event>
 4    1 -0.5010510E-019  0.1500006E+02  0.7818608E-02  0.1868067E+00
          2   -1    0    0  501    0  0.00000000000E+00  0.00000000000E+00  0.12024576995E+03  0.12024576997E+03  0.25500000000E-02 0.  1.
         -2   -1    0    0    0  501 -0.00000000000E+00 -0.00000000000E+00 -0.46779207572E+00  0.46779902587E+00  0.25500000000E-02 0. -1.
         31    1    1    2    0    0 -0.52165830897E+00  0.40427399844E+00  0.64690265628E+02  0.65120848873E+02  0.74470750000E+01 0. -1.
        -31    1    1    2    0    0  0.52165830897E+00 -0.40427399844E+00  0.55087712241E+02  0.55592720125E+02  0.74470750000E+01 0. -1.
<mgrwt>
<rscale>  0 0.15000059E+02</rscale>
<asrwt>0</asrwt>
<pdfrwt beam="1">  1        2 0.99814425E+00 0.15000059E+02</pdfrwt>
<pdfrwt beam="2">  1       -2 0.99356661E+00 0.15000059E+02</pdfrwt>
<totfact>-0.58158289E-14</totfact>
</mgrwt>
</event>
<event>
 4    1  0.5010510E-019  0.1491395E+02  0.7818608E-02  0.1870706E+00
         -2   -1    0    0    0  501 -0.00000000000E+00  0.00000000000E+00  0.11847444506E+03  0.11847444508E+03  0.25500000000E-02 0.  1.
          2   -1    0    0  501    0  0.00000000000E+00 -0.00000000000E+00 -0.46935043640E+00  0.46935736347E+00  0.25500000000E-02 0. -1.
         31    1    1    2    0    0 -0.29355472481E+00  0.12208987382E+00  0.57283871194E+02  0.57766788948E+02  0.74470750000E+01 0.  1.
        -31    1    1    2    0    0  0.29355472481E+00 -0.12208987382E+00  0.60721223426E+02  0.61177013500E+02  0.74470750000E+01 0.  1.
<mgrwt>
<rscale>  0 0.14913946E+02</rscale>
<asrwt>0</asrwt>
<pdfrwt beam="2">  1        2 0.99680562E+00 0.14913946E+02</pdfrwt>
<pdfrwt beam="1">  1       -2 0.98351058E+00 0.14913946E+02</pdfrwt>
<totfact> 0.54614843E-13</totfact>
</mgrwt>
</event>
<event>
 4    1  0.5010510E-019  0.1491825E+02  0.7818608E-02  0.1870573E+00
          2   -1    0    0  501    0  0.00000000000E+00  0.00000000000E+00  0.11965131619E+03  0.11965131622E+03  0.25500000000E-02 0.  1.
         -2   -1    0    0    0  501 -0.00000000000E+00 -0.00000000000E+00 -0.46500247657E+00  0.46500946842E+00  0.25500000000E-02 0. -1.
         31    1    1    2    0    0  0.19411816134E+00  0.32749118602E+00  0.61093474915E+02  0.61546864547E+02  0.74470750000E+01 0.  1.
        -31    1    1    2    0    0 -0.19411816134E+00 -0.32749118602E+00  0.58092838803E+02  0.58569461143E+02  0.74470750000E+01 0. -1.
<mgrwt>
<rscale>  0 0.14918255E+02</rscale>
<asrwt>0</asrwt>
<pdfrwt beam="1">  1        2 0.99320582E+00 0.14918255E+02</pdfrwt>
<pdfrwt beam="2">  1       -2 0.98764565E+00 0.14918255E+02</pdfrwt>
<totfact> 0.21281425E-13</totfact>
</mgrwt>
</event>
<event>
 4    1 -0.5010510E-019  0.1490019E+02  0.7818608E-02  0.1871130E+00
         -2   -1    0    0    0  501 -0.00000000000E+00  0.00000000000E+00  0.12027366232E+03  0.12027366235E+03  0.25500000000E-02 0.  1.
          2   -1    0    0  501    0  0.00000000000E+00 -0.00000000000E+00 -0.46147668379E+00  0.46148372906E+00  0.25500000000E-02 0. -1.
         31    1    1    2    0    0 -0.22658788774E-01  0.20124935625E+00  0.60417090872E+02  0.60874664765E+02  0.74470750000E+01 0.  1.
        -31    1    1    2    0    0  0.22658788774E-01 -0.20124935625E+00  0.59395094763E+02  0.59860481310E+02  0.74470750000E+01 0. -1.
<mgrwt>
<rscale>  0 0.14900190E+02</rscale>
<asrwt>0</asrwt>
<pdfrwt beam="2">  1        2 0.98020539E+00 0.14900190E+02</pdfrwt>
<pdfrwt beam="1">  1       -2 0.99832266E+00 0.14900190E+02</pdfrwt>
<totfact>-0.39768202E-13</totfact>
</mgrwt>
</event>
<event>
 4    1 -0.5010510E-019  0.1493152E+02  0.7818608E-02  0.1870165E+00
          2   -1    0    0  501    0  0.00000000000E+00  0.00000000000E+00  0.11891395178E+03  0.11891395180E+03  0.25500000000E-02 0.  1.
         -2   -1    0    0    0  501 -0.00000000000E+00 -0.00000000000E+00 -0.46871823471E+00  0.46872517113E+00  0.25500000000E-02 0. -1.
         31    1    1    2    0    0  0.25180173719E+00 -0.41162519987E+00  0.60933467277E+02  0.61388754670E+02  0.74470750000E+01 0.  1.
        -31    1    1    2    0    0 -0.25180173719E+00  0.41162519987E+00  0.57511766264E+02  0.57993922305E+02  0.74470750000E+01 0. -1.
<mgrwt>
<rscale>  0 0.14931517E+02</rscale>
<asrwt>0</asrwt>
<pdfrwt beam="1">  1        2 0.98713950E+00 0.14931517E+02</pdfrwt>
<pdfrwt beam="2">  1       -2 0.99548276E+00 0.14931517E+02</pdfrwt>
<totfact>-0.24555297E-13</totfact>
</mgrwt>
</event>
<event>
 4    1  0.5010510E-019  0.1491105E+02  0.7818608E-02  0.1870795E+00
         -2   -1    0    0    0  501 -0.00000000000E+00  0.00000000000E+00  0.11911745946E+03  0.11911745949E+03  0.25500000000E-02 0.  1.
          2   -1    0    0  501    0  0.00000000000E+00 -0.00000000000E+00 -0.46663545294E+00  0.46664242032E+00  0.25500000000E-02 0. -1.
         31    1    1    2    0    0 -0.13369438968E+00 -0.17022253444E+00  0.61580566883E+02  0.62029605783E+02  0.74470750000E+01 0.  1.
        -31    1    1    2    0    0  0.13369438968E+00  0.17022253444E+00  0.57070257123E+02  0.57554496124E+02  0.74470750000E+01 0. -1.
<mgrwt>
<rscale>  0 0.14911049E+02</rscale>
<asrwt>0</asrwt>
<pdfrwt beam="2">  1        2 0.99108324E+00 0.14911049E+02</pdfrwt>
<pdfrwt beam="1">  1       -2 0.98880502E+00 0.14911049E+02</pdfrwt>
<totfact> 0.11791943E-13</totfact>
</mgrwt>
</event>
<event>
 4    1 -0.5010510E-019  0.1497278E+02  0.7818608E-02  0.1868900E+00
         -2   -1    0    0    0  501 -0.00000000000E+00  0.00000000000E+00  0.11993320271E+03  0.11993320274E+03  0.25500000000E-02 0.  1.
          2   -1    0    0  501    0  0.00000000000E+00 -0.00000000000E+00 -0.46730673271E+00  0.46731369008E+00  0.25500000000E-02 0. -1.
         31    1    1    2    0    0  0.63265794856E+00  0.24906935281E+00  0.56892243006E+02  0.57381604474E+02  0.74470750000E+01 0.  1.
        -31    1    1    2    0    0 -0.63265794856E+00 -0.24906935281E+00  0.62573652970E+02  0.63018911953E+02  0.74470750000E+01 0.  1.
<mgrwt>
<rscale>  0 0.14972777E+02</rscale>
<asrwt>0</asrwt>
<pdfrwt beam="2">  1        2 0.99252975E+00 0.14972777E+02</pdfrwt>
<pdfrwt beam="1">  1       -2 0.99555571E+00 0.14972777E+02</pdfrwt>
<totfact>-0.14211731E-13</totfact>
</mgrwt>
</event>
<event>
 4    1  0.5010510E-019  0.1492217E+02  0.7818608E-02  0.1870453E+00
          2   -1    0    0  501    0  0.00000000000E+00  0.00000000000E+00  0.11965204709E+03  0.11965204711E+03  0.25500000000E-02 0.  1.
         -2   -1    0    0    0  501 -0.00000000000E+00 -0.00000000000E+00 -0.46524366157E+00  0.46525064979E+00  0.25500000000E-02 0. -1.
         31    1    1    2    0    0 -0.27711498587E+00 -0.18953732668E-03  0.56668187557E+02  0.57156095036E+02  0.74470750000E+01 0.  1.
        -31    1    1    2    0    0  0.27711498587E+00  0.18953732668E-03  0.62518615869E+02  0.62961202728E+02  0.74470750000E+01 0.  1.
<mgrwt>
<rscale>  0 0.14922168E+02</rscale>
<asrwt>0</asrwt>
<pdfrwt beam="1">  1        2 0.99321386E+00 0.14922168E+02</pdfrwt>
<pdfrwt beam="2">  1       -2 0.98815595E+00 0.14922168E+02</pdfrwt>
<totfact> 0.16043432E-13</totfact>
</mgrwt>
</event>
<event>
 4    1 -0.5010510E-019  0.1491883E+02  0.7818608E-02  0.1870555E+00
         -2   -1    0    0    0  501 -0.00000000000E+00  0.00000000000E+00  0.11966037602E+03  0.11966037604E+03  0.25500000000E-02 0. -1.
          2   -1    0    0  501    0  0.00000000000E+00 -0.00000000000E+00 -0.46500333323E+00  0.46501032506E+00  0.25500000000E-02 0.  1.
         31    1    1    2    0    0 -0.13821140712E+00 -0.37122834403E+00  0.60922133242E+02  0.61376886184E+02  0.74470750000E+01 0.  1.
        -31    1    1    2    0    0  0.13821140712E+00  0.37122834403E+00  0.58273239441E+02  0.58748500184E+02  0.74470750000E+01 0.  1.
<mgrwt>
<rscale>  0 0.14918833E+02</rscale>
<asrwt>0</asrwt>
<pdfrwt beam="2">  1        2 0.98764775E+00 0.14918833E+02</pdfrwt>
<pdfrwt beam="1">  1       -2 0.99328074E+00 0.14918833E+02</pdfrwt>
<totfact>-0.21231666E-13</totfact>
</mgrwt>
</event>
<event>
 4    1  0.5010510E-019  0.1492278E+02  0.7818608E-02  0.1870434E+00
         -2   -1    0    0    0  501 -0.00000000000E+00  0.00000000000E+00  0.11875154509E+03  0.11875154512E+03  0.25500000000E-02 0.  1.
          2   -1    0    0  501    0  0.00000000000E+00 -0.00000000000E+00 -0.46881042239E+00  0.46881735745E+00  0.25500000000E-02 0. -1.
         31    1    1    2    0    0 -0.26775179000E+00  0.37221131562E+00  0.59594620929E+02  0.60059870146E+02  0.74470750000E+01 0.  1.
        -31    1    1    2    0    0  0.26775179000E+00 -0.37221131562E+00  0.58688113741E+02  0.59160492331E+02  0.74470750000E+01 0.  1.
<mgrwt>
<rscale>  0 0.14922785E+02</rscale>
<asrwt>0</asrwt>
<pdfrwt beam="2">  1        2 0.99567244E+00 0.14922785E+02</pdfrwt>
<pdfrwt beam="1">  1       -2 0.98579737E+00 0.14922785E+02</pdfrwt>
<totfact> 0.35277463E-13</totfact>
</mgrwt>
</event>
<event>
 4    1 -0.5010510E-019  0.1494277E+02  0.7818608E-02  0.1869820E+00
         -2   -1    0    0    0  501 -0.00000000000E+00  0.00000000000E+00  0.12002231488E+03  0.12002231491E+03  0.25500000000E-02 0.  1.
          2   -1    0    0  501    0  0.00000000000E+00 -0.00000000000E+00 -0.46508964319E+00  0.46509663372E+00  0.25500000000E-02 0. -1.
         31    1    1    2    0    0  0.52495120798E+00  0.27009348848E+00  0.60736345073E+02  0.61194044343E+02  0.74470750000E+01 0.  1.
        -31    1    1    2    0    0 -0.52495120798E+00 -0.27009348848E+00  0.58820880164E+02  0.59293367197E+02  0.74470750000E+01 0. -1.
<mgrwt>
<rscale>  0 0.14942765E+02</rscale>
<asrwt>0</asrwt>
<pdfrwt beam="2">  1        2 0.98784189E+00 0.14942765E+02</pdfrwt>
<pdfrwt beam="1">  1       -2 0.99627422E+00 0.14942765E+02</pdfrwt>
<totfact>-0.20684795E-13</totfact>
</mgrwt>
</event>
<event>
 4    1 -0.5010510E-019  0.1491479E+02  0.7818608E-02  0.1870680E+00
         -2   -1    0    0    0  501 -0.00000000000E+00  0.00000000000E+00  0.12034317063E+03  0.12034317065E+03  0.25500000000E-02 0. -1.
          2   -1    0    0  501    0  0.00000000000E+00 -0.00000000000E+00 -0.46211432664E+00  0.46212136218E+00  0.25500000000E-02 0.  1.
         31    1    1    2    0    0  0.59372982193E-02  0.49471432692E-01  0.56789744083E+02  0.57275967401E+02  0.74470750000E+01 0.  1.
        -31    1    1    2    0    0 -0.59372982193E-02 -0.49471432692E-01  0.63091312217E+02  0.63529324614E+02  0.74470750000E+01 0. -1.
<mgrwt>
<rscale>  0 0.14914789E+02</rscale>
<asrwt>0</asrwt>
<pdfrwt beam="2">  1        2 0.98155674E+00 0.14914789E+02</pdfrwt>
<pdfrwt beam="1">  1       -2 0.99890268E+00 0.14914789E+02</pdfrwt>
<totfact>-0.21862277E-13</totfact>
</mgrwt>
</event>
<event>
 4    1 -0.5010510E-019  0.1491867E+02  0.7818608E-02  0.1870560E+00
          2   -1    0    0  501    0  0.00000000000E+00  0.00000000000E+00  0.11843173808E+03  0.11843173811E+03  0.25500000000E-02 0.  1.
         -2   -1    0    0    0  501 -0.00000000000E+00 -0.00000000000E+00 -0.46981731624E+00  0.46982423644E+00  0.25500000000E-02 0. -1.
         31    1    1    2    0    0  0.16054101494E+00  0.10346452010E+00  0.55932611128E+02  0.56426522062E+02  0.74470750000E+01 0. -1.
        -31    1    1    2    0    0 -0.16054101494E+00 -0.10346452010E+00  0.62029309639E+02  0.62475040286E+02  0.74470750000E+01 0.  1.
<mgrwt>
<rscale>  0 0.14918672E+02</rscale>
<asrwt>0</asrwt>
<pdfrwt beam="1">  1        2 0.98316131E+00 0.14918672E+02</pdfrwt>
<pdfrwt beam="2">  1       -2 0.99779183E+00 0.14918672E+02</pdfrwt>
<totfact>-0.30283086E-13</totfact>
</mgrwt>
</event>
<event>
 4    1 -0.5010510E-019  0.1491178E+02  0.7818608E-02  0.1870773E+00
         -2   -1    0    0    0  501 -0.00000000000E+00  0.00000000000E+00  0.12016146065E+03  0.12016146068E+03  0.25500000000E-02 0.  1.
          2   -1    0    0  501    0  0.00000000000E+00 -0.00000000000E+00 -0.46262650721E+00  0.46263353496E+00  0.25500000000E-02 0. -1.
         31    1    1    2    0    0 -0.10519469421E+00  0.31881269522E+00  0.58744160835E+02  0.59215268857E+02  0.74470750000E+01 0. -1.
        -31    1    1    2    0    0  0.10519469421E+00 -0.31881269522E+00  0.60954673310E+02  0.61408825358E+02  0.74470750000E+01 0.  1.
<mgrwt>
<rscale>  0 0.14911781E+02</rscale>
<asrwt>0</asrwt>
<pdfrwt beam="2">  1        2 0.98263477E+00 0.14911781E+02</pdfrwt>
<pdfrwt beam="1">  1       -2 0.99740441E+00 0.14911781E+02</pdfrwt>
<totfact>-0.37359631E-13</totfact>
</mgrwt>
</event>
<event>
 4    1  0.5010510E-019  0.1491456E+02  0.7818608E-02  0.1870687E+00
          2   -1    0    0  501    0  0.00000000000E+00  0.00000000000E+00  0.12029931719E+03  0.12029931721E+03  0.25500000000E-02 0. -1.
         -2   -1    0    0    0  501 -0.00000000000E+00 -0.00000000000E+00 -0.46226846736E+00  0.46227550056E+00  0.25500000000E-02 0.  1.
         31    1    1    2    0    0 -0.20897287348E+00 -0.47615396311E-02  0.57252826976E+02  0.57735507403E+02  0.74470750000E+01 0.  1.
        -31    1    1    2    0    0  0.20897287348E+00  0.47615396311E-02  0.62584221743E+02  0.63026085310E+02  0.74470750000E+01 0. -1.
<mgrwt>
<rscale>  0 0.14914558E+02</rscale>
<asrwt>0</asrwt>
<pdfrwt beam="1">  1        2 0.99854134E+00 0.14914558E+02</pdfrwt>
<pdfrwt beam="2">  1       -2 0.98188152E+00 0.14914558E+02</pdfrwt>
<totfact> 0.42733892E-13</totfact>
</mgrwt>
</event>
<event>
 4    1 -0.5010510E-019  0.1489996E+02  0.7818608E-02  0.1871137E+00
          2   -1    0    0  501    0  0.00000000000E+00  0.00000000000E+00  0.11832538188E+03  0.11832538191E+03  0.25500000000E-02 0. -1.
         -2   -1    0    0    0  501 -0.00000000000E+00 -0.00000000000E+00 -0.46906062455E+00  0.46906755591E+00  0.25500000000E-02 0.  1.
         31    1    1    2    0    0 -0.13236976332E+00  0.48968006481E-01  0.57709985416E+02  0.58188669537E+02  0.74470750000E+01 0. -1.
        -31    1    1    2    0    0  0.13236976332E+00 -0.48968006481E-01  0.60146335841E+02  0.60605779928E+02  0.74470750000E+01 0. -1.
<mgrwt>
<rscale>  0 0.14899959E+02</rscale>
<asrwt>0</asrwt>
<pdfrwt beam="1">  1        2 0.98227562E+00 0.14899959E+02</pdfrwt>
<pdfrwt beam="2">  1       -2 0.99618761E+00 0.14899959E+02</pdfrwt>
<totfact>-0.50258355E-13</totfact>
</mgrwt>
</event>
<event>
 4    1 -0.5010510E-019  0.1490834E+02  0.7818608E-02  0.1870879E+00
          2   -1    0    0  501    0  0.00000000000E+00  0.00000000000E+00  0.11804443653E+03  0.11804443656E+03  0.25500000000E-02 0.  1.
         -2   -1    0    0    0  501 -0.00000000000E+00 -0.00000000000E+00 -0.47070593094E+00  0.47071283806E+00  0.25500000000E-02 0. -1.
         31    1    1    2    0    0  0.34482264311E-01  0.31890981345E+00  0.58365554431E+02  0.58839610490E+02  0.74470750000E+01 0. -1.
        -31    1    1    2    0    0 -0.34482264311E-01 -0.31890981345E+00  0.59208176167E+02  0.59675538905E+02  0.74470750000E+01 0.  1.
<mgrwt>
<rscale>  0 0.14908337E+02</rscale>
<asrwt>0</asrwt>
<pdfrwt beam="1">  1        2 0.97996618E+00 0.14908337E+02</pdfrwt>
<pdfrwt beam="2">  1       -2 0.99965857E+00 0.14908337E+02</pdfrwt>
<totfact>-0.94047686E-14</totfact>
</mgrwt>
</event>
<event>
 4    1 -0.5010510E-019  0.1492047E+02  0.7818608E-02  0.1870505E+00
         -2   -1    0    0    0  501 -0.00000000000E+00  0.00000000000E+00  0.12003201822E+03  0.12003201824E+03  0.25500000000E-02 0. -1.
          2   -1    0    0  501    0  0.00000000000E+00 -0.00000000000E+00 -0.46366532266E+00  0.46367233467E+00  0.25500000000E-02 0.  1.
         31    1    1    2    0    0 -0.14656677593E+00  0.41780500715E+00  0.59879611045E+02  0.60342545420E+02  0.74470750000E+01 0.  1.
        -31    1    1    2    0    0  0.14656677593E+00 -0.41780500715E+00  0.59688741850E+02  0.60153145159E+02  0.74470750000E+01 0. -1.
<mgrwt>
<rscale>  0 0.14920470E+02</rscale>
<asrwt>0</asrwt>
<pdfrwt beam="2">  1        2 0.98482865E+00 0.14920470E+02</pdfrwt>
<pdfrwt beam="1">  1       -2 0.99634268E+00 0.14920470E+02</pdfrwt>
<totfact>-0.32107736E-13</totfact>
</mgrwt>
</event>
<event>
 4    1  0.5010510E-019  0.1494216E+02  0.7818608E-02  0.1869839E+00
         -2   -1    0    0    0  501 -0.00000000000E+00  0.00000000000E+00  0.11883029454E+03  0.11883029456E+03  0.25500000000E-02 0.  1.
          2   -1    0    0  501    0  0.00000000000E+00 -0.00000000000E+00 -0.46971739033E+00  0.46972431200E+00  0.25500000000E-02 0. -1.
         31    1    1    2    0    0 -0.15600904139E+00 -0.53906747456E+00  0.60839981859E+02  0.61296633278E+02  0.74470750000E+01 0.  1.
        -31    1    1    2    0    0  0.15600904139E+00  0.53906747456E+00  0.57520595287E+02  0.58003385597E+02  0.74470750000E+01 0. -1.
<mgrwt>
<rscale>  0 0.14942165E+02</rscale>
<asrwt>0</asrwt>
<pdfrwt beam="2">  1        2 0.99759367E+00 0.14942165E+02</pdfrwt>
<pdfrwt beam="1">  1       -2 0.98645603E+00 0.14942165E+02</pdfrwt>
<totfact> 0.19208336E-13</totfact>
</mgrwt>
</event>
<event>
 4    1  0.5010510E-019  0.1493354E+02  0.7818608E-02  0.1870103E+00
         -2   -1    0    0    0  501 -0.00000000000E+00  0.00000000000E+00  0.11902154634E+03  0.11902154636E+03  0.25500000000E-02 0. -1.
          2   -1    0    0  501    0  0.00000000000E+00 -0.00000000000E+00 -0.46842120067E+00  0.46842814149E+00  0.25500000000E-02 0.  1.
         31    1    1    2    0    0  0.36798592650E+00  0.39698133752E+00  0.59065155778E+02  0.59535237977E+02  0.74470750000E+01 0.  1.
        -31    1    1    2    0    0 -0.36798592650E+00 -0.39698133752E+00  0.59487969358E+02  0.59954736529E+02  0.74470750000E+01 0.  1.
<mgrwt>
<rscale>  0 0.14933537E+02</rscale>
<asrwt>0</asrwt>
<pdfrwt beam="2">  1        2 0.99485792E+00 0.14933537E+02</pdfrwt>
<pdfrwt beam="1">  1       -2 0.98802671E+00 0.14933537E+02</pdfrwt>
<totfact> 0.15115179E-13</totfact>
</mgrwt>
</event>
<event>
 4    1 -0.5010510E-019  0.1502933E+02  0.7818608E-02  0.1867175E+00
          2   -1    0    0  501    0  0.00000000000E+00  0.00000000000E+00  0.12018224578E+03  0.12018224581E+03  0.25500000000E-02 0.  1.
         -2   -1    0    0    0  501 -0.00000000000E+00 -0.00000000000E+00 -0.46986807612E+00  0.46987499557E+00  0.25500000000E-02 0. -1.
         31    1    1    2    0    0 -0.22876992445E+00 -0.36798520040E+00  0.52571033007E+02  0.53097647653E+02  0.74470750000E+01 0. -1.
        -31    1    1    2    0    0  0.22876992445E+00  0.36798520040E+00  0.67141344698E+02  0.67554473151E+02  0.74470750000E+01 0.  1.
<mgrwt>
<rscale>  0 0.15029334E+02</rscale>
<asrwt>0</asrwt>
<pdfrwt beam="1">  1        2 0.99763615E+00 0.15029334E+02</pdfrwt>
<pdfrwt beam="2">  1       -2 0.99795664E+00 0.15029334E+02</pdfrwt>
<totfact>-0.44988056E-14</totfact>
</mgrwt>
</event>
<event>
 4    1  0.5010510E-019  0.1493251E+02  0.7818608E-02  0.1870135E+00
         -2   -1    0    0    0  501 -0.00000000000E+00  0.00000000000E+00  0.11852562839E+03  0.11852562842E+03  0.25500000000E-02 0.  1.
          2   -1    0    0  501    0  0.00000000000E+00 -0.00000000000E+00 -0.47031617221E+00  0.47032308506E+00  0.25500000000E-02 0. -1.
         31    1    1    2    0    0 -0.28324777270E-01  0.16964600436E-01  0.63281273271E+02  0.63717968917E+02  0.74470750000E+01 0.  1.
        -31    1    1    2    0    0  0.28324777270E-01 -0.16964600436E-01  0.54774038949E+02  0.55277982587E+02  0.74470750000E+01 0. -1.
<mgrwt>
<rscale>  0 0.14932506E+02</rscale>
<asrwt>0</asrwt>
<pdfrwt beam="2">  1        2 0.99885021E+00 0.14932506E+02</pdfrwt>
<pdfrwt beam="1">  1       -2 0.98394178E+00 0.14932506E+02</pdfrwt>
<totfact> 0.22211501E-13</totfact>
</mgrwt>
</event>
<event>
 4    1 -0.5010510E-019  0.1499307E+02  0.7818608E-02  0.1868280E+00
          2   -1    0    0  501    0  0.00000000000E+00  0.00000000000E+00  0.11962640207E+03  0.11962640210E+03  0.25500000000E-02 0. -1.
         -2   -1    0    0    0  501 -0.00000000000E+00 -0.00000000000E+00 -0.46977606944E+00  0.46978299024E+00  0.25500000000E-02 0.  1.
         31    1    1    2    0    0  0.47427369587E+00  0.66161216904E+00  0.57363608411E+02  0.57850714448E+02  0.74470750000E+01 0.  1.
        -31    1    1    2    0    0 -0.47427369587E+00 -0.66161216904E+00  0.61793017593E+02  0.62245470643E+02  0.74470750000E+01 0. -1.
<mgrwt>
<rscale>  0 0.14993070E+02</rscale>
<asrwt>0</asrwt>
<pdfrwt beam="1">  1        2 0.99303929E+00 0.14993070E+02</pdfrwt>
<pdfrwt beam="2">  1       -2 0.99774394E+00 0.14993070E+02</pdfrwt>
<totfact>-0.91814366E-14</totfact>
</mgrwt>
</event>
<event>
 4    1 -0.5010510E-019  0.1498437E+02  0.7818608E-02  0.1868546E+00
         -2   -1    0    0    0  501 -0.00000000000E+00  0.00000000000E+00  0.12024463119E+03  0.12024463122E+03  0.25500000000E-02 0.  1.
          2   -1    0    0  501    0  0.00000000000E+00 -0.00000000000E+00 -0.46681841185E+00  0.46682537649E+00  0.25500000000E-02 0. -1.
         31    1    1    2    0    0 -0.82073604855E+00 -0.99570937838E-02  0.59775868333E+02  0.60243564535E+02  0.74470750000E+01 0.  1.
        -31    1    1    2    0    0  0.82073604855E+00  0.99570937838E-02  0.60001944445E+02  0.60467892059E+02  0.74470750000E+01 0.  1.
<mgrwt>
<rscale>  0 0.14984369E+02</rscale>
<asrwt>0</asrwt>
<pdfrwt beam="2">  1        2 0.99150659E+00 0.14984369E+02</pdfrwt>
<pdfrwt beam="1">  1       -2 0.99812678E+00 0.14984369E+02</pdfrwt>
<totfact>-0.88527042E-14</totfact>
</mgrwt>
</event>
<event>
 4    1 -0.5010510E-019  0.1500177E+02  0.7818608E-02  0.1868015E+00
         -2   -1    0    0    0  501 -0.00000000000E+00  0.00000000000E+00  0.11982562692E+03  0.11982562694E+03  0.25500000000E-02 0.  1.
          2   -1    0    0  501    0  0.00000000000E+00 -0.00000000000E+00 -0.46953930695E+00  0.46954623124E+00  0.25500000000E-02 0. -1.
         31    1    1    2    0    0  0.77963640906E-01 -0.31299194252E-01  0.66837995291E+02  0.67251643835E+02  0.74470750000E+01 0.  1.
        -31    1    1    2    0    0 -0.77963640906E-01  0.31299194252E-01  0.52518092319E+02  0.53043529341E+02  0.74470750000E+01 0. -1.
<mgrwt>
<rscale>  0 0.15001768E+02</rscale>
<asrwt>0</asrwt>
<pdfrwt beam="2">  1        2 0.99724955E+00 0.15001768E+02</pdfrwt>
<pdfrwt beam="1">  1       -2 0.99468466E+00 0.15001768E+02</pdfrwt>
<totfact>-0.83146013E-14</totfact>
</mgrwt>
</event>
<event>
 4    1 -0.5010510E-019  0.1490372E+02  0.7818608E-02  0.1871021E+00
         -2   -1    0    0    0  501 -0.00000000000E+00  0.00000000000E+00  0.11992649027E+03  0.11992649030E+03  0.25500000000E-02 0.  1.
          2   -1    0    0  501    0  0.00000000000E+00 -0.00000000000E+00 -0.46303175446E+00  0.46303877606E+00  0.25500000000E-02 0. -1.
         31    1    1    2    0    0 -0.21296975799E+00  0.13811233289E+00  0.60399814250E+02  0.60857710429E+02  0.74470750000E+01 0.  1.
        -31    1    1    2    0    0  0.21296975799E+00 -0.13811233289E+00  0.59063644265E+02  0.59531818644E+02  0.74470750000E+01 0.  1.
<mgrwt>
<rscale>  0 0.14903717E+02</rscale>
<asrwt>0</asrwt>
<pdfrwt beam="2">  1        2 0.98348482E+00 0.14903717E+02</pdfrwt>
<pdfrwt beam="1">  1       -2 0.99546486E+00 0.14903717E+02</pdfrwt>
<totfact>-0.43784692E-13</totfact>
</mgrwt>
</event>
<event>
 4    1 -0.5010510E-019  0.1494910E+02  0.7818608E-02  0.1869626E+00
         -2   -1    0    0    0  501 -0.00000000000E+00  0.00000000000E+00  0.12026973104E+03  0.12026973107E+03  0.25500000000E-02 0.  1.
          2   -1    0    0  501    0  0.00000000000E+00 -0.00000000000E+00 -0.46452663455E+00  0.46453363356E+00  0.25500000000E-02 0. -1.
         31    1    1    2    0    0  0.59330549228E+00 -0.23993002283E+00  0.60066864607E+02  0.60530130742E+02  0.74470750000E+01 0. -1.
        -31    1    1    2    0    0 -0.59330549228E+00  0.23993002283E+00  0.59738339798E+02  0.60204133959E+02  0.74470750000E+01 0. -1.
<mgrwt>
<rscale>  0 0.14949103E+02</rscale>
<asrwt>0</asrwt>
<pdfrwt beam="2">  1        2 0.98665853E+00 0.14949103E+02</pdfrwt>
<pdfrwt beam="1">  1       -2 0.99831537E+00 0.14949103E+02</pdfrwt>
<totfact>-0.13846384E-13</totfact>
</mgrwt>
</event>
<event>
 4    1 -0.5010510E-019  0.1494502E+02  0.7818608E-02  0.1869751E+00
         -2   -1    0    0    0  501 -0.00000000000E+00  0.00000000000E+00  0.11984243312E+03  0.11984243315E+03  0.25500000000E-02 0. -1.
          2   -1    0    0  501    0  0.00000000000E+00 -0.00000000000E+00 -0.46592830939E+00  0.46593528734E+00  0.25500000000E-02 0.  1.
         31    1    1    2    0    0 -0.38144584132E+00 -0.13529601939E+00  0.63426739347E+02  0.63863714238E+02  0.74470750000E+01 0. -1.
        -31    1    1    2    0    0  0.38144584132E+00  0.13529601939E+00  0.55949765463E+02  0.56444654197E+02  0.74470750000E+01 0.  1.
<mgrwt>
<rscale>  0 0.14945020E+02</rscale>
<asrwt>0</asrwt>
<pdfrwt beam="2">  1        2 0.98961054E+00 0.14945020E+02</pdfrwt>
<pdfrwt beam="1">  1       -2 0.99479377E+00 0.14945020E+02</pdfrwt>
<totfact>-0.18601600E-13</totfact>
</mgrwt>
</event>
<event>
 4    1 -0.5010510E-019  0.1498570E+02  0.7818608E-02  0.1868505E+00
         -2   -1    0    0    0  501 -0.00000000000E+00  0.00000000000E+00  0.11970904746E+03  0.11970904749E+03  0.25500000000E-02 0. -1.
          2   -1    0    0  501    0  0.00000000000E+00 -0.00000000000E+00 -0.46899055019E+00  0.46899748259E+00  0.25500000000E-02 0.  1.
         31    1    1    2    0    0 -0.19861140004E+00 -0.51264528411E+00  0.54665731429E+02  0.55173393682E+02  0.74470750000E+01 0. -1.
        -31    1    1    2    0    0  0.19861140004E+00  0.51264528411E+00  0.64574325484E+02  0.65004651291E+02  0.74470750000E+01 0. -1.
<mgrwt>
<rscale>  0 0.14985704E+02</rscale>
<asrwt>0</asrwt>
<pdfrwt beam="2">  1        2 0.99608483E+00 0.14985704E+02</pdfrwt>
<pdfrwt beam="1">  1       -2 0.99371616E+00 0.14985704E+02</pdfrwt>
<totfact>-0.99674138E-14</totfact>
</mgrwt>
</event>
<event>
 4    1 -0.5010510E-019  0.1490261E+02  0.7818608E-02  0.1871055E+00
          2   -1    0    0  501    0  0.00000000000E+00  0.00000000000E+00  0.11847487507E+03  0.11847487510E+03  0.25500000000E-02 0. -1.
         -2   -1    0    0    0  501 -0.00000000000E+00 -0.00000000000E+00 -0.46863523502E+00  0.46864217267E+00  0.25500000000E-02 0.  1.
         31    1    1    2    0    0  0.94289027541E-01 -0.13892329829E+00  0.57514232397E+02  0.57994603580E+02  0.74470750000E+01 0.  1.
        -31    1    1    2    0    0 -0.94289027541E-01  0.13892329829E+00  0.60492007442E+02  0.60948913695E+02  0.74470750000E+01 0. -1.
<mgrwt>
<rscale>  0 0.14902606E+02</rscale>
<asrwt>0</asrwt>
<pdfrwt beam="1">  1        2 0.98350822E+00 0.14902606E+02</pdfrwt>
<pdfrwt beam="2">  1       -2 0.99529270E+00 0.14902606E+02</pdfrwt>
<totfact>-0.44011836E-13</totfact>
</mgrwt>
</event>
<event>
 4    1 -0.5010510E-019  0.1495851E+02  0.7818608E-02  0.1869337E+00
          2   -1    0    0  501    0  0.00000000000E+00  0.00000000000E+00  0.11956510706E+03  0.11956510709E+03  0.25500000000E-02 0.  1.
         -2   -1    0    0    0  501 -0.00000000000E+00 -0.00000000000E+00 -0.46785262896E+00  0.46785957821E+00  0.25500000000E-02 0. -1.
         31    1    1    2    0    0 -0.46491821368E+00  0.43330310558E+00  0.57330034530E+02  0.57815185599E+02  0.74470750000E+01 0. -1.
        -31    1    1    2    0    0  0.46491821368E+00 -0.43330310558E+00  0.61767219903E+02  0.62217781069E+02  0.74470750000E+01 0.  1.
<mgrwt>
<rscale>  0 0.14958512E+02</rscale>
<asrwt>0</asrwt>
<pdfrwt beam="1">  1        2 0.99251655E+00 0.14958512E+02</pdfrwt>
<pdfrwt beam="2">  1       -2 0.99367279E+00 0.14958512E+02</pdfrwt>
<totfact>-0.13887704E-13</totfact>
</mgrwt>
</event>
<event>
 4    1  0.5010510E-019  0.1489914E+02  0.7818608E-02  0.1871162E+00
          2   -1    0    0  501    0  0.00000000000E+00  0.00000000000E+00  0.11932833484E+03  0.11932833487E+03  0.25500000000E-02 0. -1.
         -2   -1    0    0    0  501 -0.00000000000E+00 -0.00000000000E+00 -0.46506706690E+00  0.46507405777E+00  0.25500000000E-02 0.  1.
         31    1    1    2    0    0 -0.16602414963E+00 -0.69825262587E-01  0.59984803751E+02  0.60445579216E+02  0.74470750000E+01 0.  1.
        -31    1    1    2    0    0  0.16602414963E+00  0.69825262587E-01  0.58878464026E+02  0.59347829713E+02  0.74470750000E+01 0. -1.
<mgrwt>
<rscale>  0 0.14899141E+02</rscale>
<asrwt>0</asrwt>
<pdfrwt beam="1">  1        2 0.99053572E+00 0.14899141E+02</pdfrwt>
<pdfrwt beam="2">  1       -2 0.98777195E+00 0.14899141E+02</pdfrwt>
<totfact> 0.24440167E-13</totfact>
</mgrwt>
</event>
<event>
 4    1 -0.5010510E-019  0.1493696E+02  0.7818608E-02  0.1869998E+00
          2   -1    0    0  501    0  0.00000000000E+00  0.00000000000E+00  0.11911231327E+03  0.11911231330E+03  0.25500000000E-02 0. -1.
         -2   -1    0    0    0  501 -0.00000000000E+00 -0.00000000000E+00 -0.46827881840E+00  0.46828576133E+00  0.25500000000E-02 0.  1.
         31    1    1    2    0    0 -0.12915688192E-01  0.33988899011E+00  0.62934104697E+02  0.63374096849E+02  0.74470750000E+01 0. -1.
        -31    1    1    2    0    0  0.12915688192E-01 -0.33988899011E+00  0.55709929758E+02  0.56206502213E+02  0.74470750000E+01 0.  1.
<mgrwt>
<rscale>  0 0.14936960E+02</rscale>
<asrwt>0</asrwt>
<pdfrwt beam="1">  1        2 0.98877606E+00 0.14936960E+02</pdfrwt>
<pdfrwt beam="2">  1       -2 0.99455968E+00 0.14936960E+02</pdfrwt>
<totfact>-0.20334339E-13</totfact>
</mgrwt>
</event>
<event>
 4    1 -0.5010510E-019  0.1493842E+02  0.7818608E-02  0.1869953E+00
          2   -1    0    0  501    0  0.00000000000E+00  0.00000000000E+00  0.11908390765E+03  0.11908390768E+03  0.25500000000E-02 0. -1.
         -2   -1    0    0    0  501 -0.00000000000E+00 -0.00000000000E+00 -0.46848241312E+00  0.46848935303E+00  0.25500000000E-02 0.  1.
         31    1    1    2    0    0  0.91438772460E-03 -0.53148796041E+00  0.57559341989E+02  0.58041530446E+02  0.74470750000E+01 0.  1.
        -31    1    1    2    0    0 -0.91438772460E-03  0.53148796041E+00  0.61056083246E+02  0.61510866582E+02  0.74470750000E+01 0. -1.
<mgrwt>
<rscale>  0 0.14938425E+02</rscale>
<asrwt>0</asrwt>
<pdfrwt beam="1">  1        2 0.98854287E+00 0.14938425E+02</pdfrwt>
<pdfrwt beam="2">  1       -2 0.99498946E+00 0.14938425E+02</pdfrwt>
<totfact>-0.20876334E-13</totfact>
</mgrwt>
</event>
<event>
 4    1 -0.5010510E-019  0.1493329E+02  0.7818608E-02  0.1870111E+00
         -2   -1    0    0    0  501 -0.00000000000E+00  0.00000000000E+00  0.11968823660E+03  0.11968823663E+03  0.25500000000E-02 0.  1.
          2   -1    0    0  501    0  0.00000000000E+00 -0.00000000000E+00 -0.46579640204E+00  0.46580338197E+00  0.25500000000E-02 0. -1.
         31    1    1    2    0    0  0.25115150291E+00 -0.18325499631E+00  0.63165950129E+02  0.63604188866E+02  0.74470750000E+01 0.  1.
        -31    1    1    2    0    0 -0.25115150291E+00  0.18325499631E+00  0.56056490068E+02  0.56549851143E+02  0.74470750000E+01 0. -1.
<mgrwt>
<rscale>  0 0.14933288E+02</rscale>
<asrwt>0</asrwt>
<pdfrwt beam="2">  1        2 0.98932653E+00 0.14933288E+02</pdfrwt>
<pdfrwt beam="1">  1       -2 0.99351767E+00 0.14933288E+02</pdfrwt>
<totfact>-0.17902708E-13</totfact>
</mgrwt>
</event>
<event>
 4    1 -0.5010510E-019  0.1491118E+02  0.7818608E-02  0.1870791E+00
         -2   -1    0    0    0  501 -0.00000000000E+00  0.00000000000E+00  0.11955670628E+03  0.11955670630E+03  0.25500000000E-02 0. -1.
          2   -1    0    0  501    0  0.00000000000E+00 -0.00000000000E+00 -0.46492924549E+00  0.46493623844E+00  0.25500000000E-02 0.  1.
         31    1    1    2    0    0 -0.35122663231E+00  0.31300604376E-01  0.59138267085E+02  0.59606357880E+02  0.74470750000E+01 0.  1.
        -31    1    1    2    0    0  0.35122663231E+00 -0.31300604376E-01  0.59953509946E+02  0.60415284662E+02  0.74470750000E+01 0. -1.
<mgrwt>
<rscale>  0 0.14911181E+02</rscale>
<asrwt>0</asrwt>
<pdfrwt beam="2">  1        2 0.98748769E+00 0.14911181E+02</pdfrwt>
<pdfrwt beam="1">  1       -2 0.99242292E+00 0.14911181E+02</pdfrwt>
<totfact>-0.18163921E-13</totfact>
</mgrwt>
</event>
<event>
 4    1  0.5010510E-019  0.1490695E+02  0.7818608E-02  0.1870921E+00
         -2   -1    0    0    0  501 -0.00000000000E+00  0.00000000000E+00  0.11850672487E+03  0.11850672490E+03  0.25500000000E-02 0.  1.
          2   -1    0    0  501    0  0.00000000000E+00 -0.00000000000E+00 -0.46878255018E+00  0.46878948564E+00  0.25500000000E-02 0. -1.
         31    1    1    2    0    0 -0.29112468332E+00  0.59097667141E-01  0.58345197397E+02  0.58819293021E+02  0.74470750000E+01 0.  1.
        -31    1    1    2    0    0  0.29112468332E+00 -0.59097667141E-01  0.59692744928E+02  0.60156221367E+02  0.74470750000E+01 0.  1.
<mgrwt>
<rscale>  0 0.14906951E+02</rscale>
<asrwt>0</asrwt>
<pdfrwt beam="2">  1        2 0.99560539E+00 0.14906951E+02</pdfrwt>
<pdfrwt beam="1">  1       -2 0.98377280E+00 0.14906951E+02</pdfrwt>
<totfact> 0.62251794E-13</totfact>
</mgrwt>
</event>
<event>
 4    1  0.5010510E-019  0.1489965E+02  0.7818608E-02  0.1871146E+00
         -2   -1    0    0    0  501 -0.00000000000E+00  0.00000000000E+00  0.11843363744E+03  0.11843363747E+03  0.25500000000E-02 0. -1.
          2   -1    0    0  501    0  0.00000000000E+00 -0.00000000000E+00 -0.46861277294E+00  0.46861971092E+00  0.25500000000E-02 0.  1.
         31    1    1    2    0    0  0.48023520643E-01  0.29241359782E-01  0.60534902273E+02  0.60991282004E+02  0.74470750000E+01 0. -1.
        -31    1    1    2    0    0 -0.48023520643E-01 -0.29241359782E-01  0.57430122392E+02  0.57910975172E+02  0.74470750000E+01 0.  1.
<mgrwt>
<rscale>  0 0.14899655E+02</rscale>
<asrwt>0</asrwt>
<pdfrwt beam="2">  1        2 0.99524382E+00 0.14899655E+02</pdfrwt>
<pdfrwt beam="1">  1       -2 0.98316705E+00 0.14899655E+02</pdfrwt>
<totfact> 0.74758635E-13</totfact>
</mgrwt>
</event>
<event>
 4    1  0.5010510E-019  0.1491813E+02  0.7818608E-02  0.1870577E+00
          2   -1    0    0  501    0  0.00000000000E+00  0.00000000000E+00  0.11989789980E+03  0.11989789983E+03  0.25500000000E-02 0. -1.
         -2   -1    0    0    0  501 -0.00000000000E+00 -0.00000000000E+00 -0.46403855003E+00  0.46404555640E+00  0.25500000000E-02 0.  1.
         31    1    1    2    0    0 -0.15751533016E-01 -0.33613622276E+00  0.57651904019E+02  0.58131869046E+02  0.74470750000E+01 0.  1.
        -31    1    1    2    0    0  0.15751533016E-01  0.33613622276E+00  0.61781957232E+02  0.62230076339E+02  0.74470750000E+01 0. -1.
<mgrwt>
<rscale>  0 0.14918133E+02</rscale>
<asrwt>0</asrwt>
<pdfrwt beam="1">  1        2 0.99523678E+00 0.14918133E+02</pdfrwt>
<pdfrwt beam="2">  1       -2 0.98561408E+00 0.14918133E+02</pdfrwt>
<totfact> 0.39389603E-13</totfact>
</mgrwt>
</event>
<event>
 4    1  0.5010510E-019  0.1494948E+02  0.7818608E-02  0.1869614E+00
          2   -1    0    0  501    0  0.00000000000E+00  0.00000000000E+00  0.12014355561E+03  0.12014355563E+03  0.25500000000E-02 0. -1.
         -2   -1    0    0    0  501 -0.00000000000E+00 -0.00000000000E+00 -0.46503805020E+00  0.46504504151E+00  0.25500000000E-02 0.  1.
         31    1    1    2    0    0  0.30452350985E-01  0.12557014219E+00  0.54761532609E+02  0.55265731470E+02  0.74470750000E+01 0.  1.
        -31    1    1    2    0    0 -0.30452350985E-01 -0.12557014219E+00  0.64916984948E+02  0.65342869206E+02  0.74470750000E+01 0. -1.
<mgrwt>
<rscale>  0 0.14949481E+02</rscale>
<asrwt>0</asrwt>
<pdfrwt beam="1">  1        2 0.99727630E+00 0.14949481E+02</pdfrwt>
<pdfrwt beam="2">  1       -2 0.98773658E+00 0.14949481E+02</pdfrwt>
<totfact> 0.12063722E-13</totfact>
</mgrwt>
</event>
<event>
 4    1  0.5010510E-019  0.1490571E+02  0.7818608E-02  0.1870959E+00
          2   -1    0    0  501    0  0.00000000000E+00  0.00000000000E+00  0.12005050990E+03  0.12005050993E+03  0.25500000000E-02 0.  1.
         -2   -1    0    0    0  501 -0.00000000000E+00 -0.00000000000E+00 -0.46267737160E+00  0.46268439858E+00  0.25500000000E-02 0. -1.
         31    1    1    2    0    0  0.98631582341E-01 -0.21457671160E+00  0.58384659390E+02  0.58858161282E+02  0.74470750000E+01 0. -1.
        -31    1    1    2    0    0 -0.98631582341E-01  0.21457671160E+00  0.61203173141E+02  0.61655033046E+02  0.74470750000E+01 0.  1.
<mgrwt>
<rscale>  0 0.14905714E+02</rscale>
<asrwt>0</asrwt>
<pdfrwt beam="1">  1        2 0.99648741E+00 0.14905714E+02</pdfrwt>
<pdfrwt beam="2">  1       -2 0.98273891E+00 0.14905714E+02</pdfrwt>
<totfact> 0.68932398E-13</totfact>
</mgrwt>
</event>
<event>
 4    1 -0.5010510E-019  0.1500069E+02  0.7818608E-02  0.1868047E+00
          2   -1    0    0  501    0  0.00000000000E+00  0.00000000000E+00  0.11987465795E+03  0.11987465798E+03  0.25500000000E-02 0. -1.
         -2   -1    0    0    0  501 -0.00000000000E+00 -0.00000000000E+00 -0.46927978161E+00  0.46928670973E+00  0.25500000000E-02 0.  1.
         31    1    1    2    0    0 -0.44267363192E+00  0.65731933248E+00  0.56412293590E+02  0.56907238756E+02  0.74470750000E+01 0. -1.
        -31    1    1    2    0    0  0.44267363192E+00 -0.65731933248E+00  0.62993084578E+02  0.63436705931E+02  0.74470750000E+01 0. -1.
<mgrwt>
<rscale>  0 0.15000690E+02</rscale>
<asrwt>0</asrwt>
<pdfrwt beam="1">  1        2 0.99508794E+00 0.15000690E+02</pdfrwt>
<pdfrwt beam="2">  1       -2 0.99670209E+00 0.15000690E+02</pdfrwt>
<totfact>-0.10042658E-13</totfact>
</mgrwt>
</event>
<event>
 4    1 -0.5010510E-019  0.1492484E+02  0.7818608E-02  0.1870371E+00
         -2   -1    0    0    0  501 -0.00000000000E+00  0.00000000000E+00  0.12004632929E+03  0.12004632932E+03  0.25500000000E-02 0.  1.
          2   -1    0    0  501    0  0.00000000000E+00 -0.00000000000E+00 -0.46388186822E+00  0.46388887696E+00  0.25500000000E-02 0. -1.
         31    1    1    2    0    0  0.23061312061E+00 -0.25434758127E+00  0.57101827336E+02  0.57586417550E+02  0.74470750000E+01 0. -1.
        -31    1    1    2    0    0 -0.23061312061E+00  0.25434758127E+00  0.62480620087E+02  0.62923800645E+02  0.74470750000E+01 0.  1.
<mgrwt>
<rscale>  0 0.14924844E+02</rscale>
<asrwt>0</asrwt>
<pdfrwt beam="2">  1        2 0.98528727E+00 0.14924844E+02</pdfrwt>
<pdfrwt beam="1">  1       -2 0.99646280E+00 0.14924844E+02</pdfrwt>
<totfact>-0.29294409E-13</totfact>
</mgrwt>
</event>
<event>
 4    1 -0.5010510E-019  0.1500426E+02  0.7818608E-02  0.1867938E+00
         -2   -1    0    0    0  501 -0.00000000000E+00  0.00000000000E+00  0.12020783795E+03  0.12020783798E+03  0.25500000000E-02 0.  1.
          2   -1    0    0  501    0  0.00000000000E+00 -0.00000000000E+00 -0.46820213718E+00  0.46820908125E+00  0.25500000000E-02 0. -1.
         31    1    1    2    0    0 -0.29287476843E+00  0.32323819849E+00  0.53471872806E+02  0.53989724633E+02  0.74470750000E+01 0. -1.
        -31    1    1    2    0    0  0.29287476843E+00 -0.32323819849E+00  0.66267763008E+02  0.66686322426E+02  0.74470750000E+01 0.  1.
<mgrwt>
<rscale>  0 0.15004264E+02</rscale>
<asrwt>0</asrwt>
<pdfrwt beam="2">  1        2 0.99443295E+00 0.15004264E+02</pdfrwt>
<pdfrwt beam="1">  1       -2 0.99783399E+00 0.15004264E+02</pdfrwt>
<totfact>-0.79756945E-14</totfact>
</mgrwt>
</event>
<event>
 4    1 -0.5010510E-019  0.1498590E+02  0.7818608E-02  0.1868499E+00
          2   -1    0    0  501    0  0.00000000000E+00  0.00000000000E+00  0.11957199078E+03  0.11957199080E+03  0.25500000000E-02 0.  1.
         -2   -1    0    0    0  501 -0.00000000000E+00 -0.00000000000E+00 -0.46954039687E+00  0.46954732114E+00  0.25500000000E-02 0. -1.
         31    1    1    2    0    0  0.26427305520E+00 -0.77964681705E+00  0.58849156736E+02  0.59324192906E+02  0.74470750000E+01 0. -1.
        -31    1    1    2    0    0 -0.26427305520E+00  0.77964681705E+00  0.60253293642E+02  0.60717345217E+02  0.74470750000E+01 0.  1.
<mgrwt>
<rscale>  0 0.14985900E+02</rscale>
<asrwt>0</asrwt>
<pdfrwt beam="1">  1        2 0.99258743E+00 0.14985900E+02</pdfrwt>
<pdfrwt beam="2">  1       -2 0.99724360E+00 0.14985900E+02</pdfrwt>
<totfact>-0.10981958E-13</totfact>
</mgrwt>
</event>
<event>
 4    1 -0.5010510E-019  0.1494313E+02  0.7818608E-02  0.1869809E+00
         -2   -1    0    0    0  501 -0.00000000000E+00  0.00000000000E+00  0.12022648285E+03  0.12022648288E+03  0.25500000000E-02 0.  1.
          2   -1    0    0  501    0  0.00000000000E+00 -0.00000000000E+00 -0.46432222488E+00  0.46432922697E+00  0.25500000000E-02 0. -1.
         31    1    1    2    0    0  0.15349591562E+00  0.36054320283E+00  0.56164283664E+02  0.56657208172E+02  0.74470750000E+01 0.  1.
        -31    1    1    2    0    0 -0.15349591562E+00 -0.36054320283E+00  0.63597876965E+02  0.64033603935E+02  0.74470750000E+01 0.  1.
<mgrwt>
<rscale>  0 0.14943126E+02</rscale>
<asrwt>0</asrwt>
<pdfrwt beam="2">  1        2 0.98622467E+00 0.14943126E+02</pdfrwt>
<pdfrwt beam="1">  1       -2 0.99795608E+00 0.14943126E+02</pdfrwt>
<totfact>-0.17317001E-13</totfact>
</mgrwt>
</event>
<event>
 4    1 -0.5010510E-019  0.1489824E+02  0.7818608E-02  0.1871190E+00
          2   -1    0    0  501    0  0.00000000000E+00  0.00000000000E+00  0.11799585165E+03  0.11799585167E+03  0.25500000000E-02 0. -1.
         -2   -1    0    0    0  501 -0.00000000000E+00 -0.00000000000E+00 -0.47026205954E+00  0.47026897319E+00  0.25500000000E-02 0.  1.
         31    1    1    2    0    0 -0.65009699805E-02 -0.16963108303E+00  0.59084846739E+02  0.59552555421E+02  0.74470750000E+01 0. -1.
        -31    1    1    2    0    0  0.65009699805E-02  0.16963108303E+00  0.58440742847E+02  0.58913565225E+02  0.74470750000E+01 0.  1.
<mgrwt>
<rscale>  0 0.14898239E+02</rscale>
<asrwt>0</asrwt>
<pdfrwt beam="1">  1        2 0.97956077E+00 0.14898239E+02</pdfrwt>
<pdfrwt beam="2">  1       -2 0.99871803E+00 0.14898239E+02</pdfrwt>
<totfact>-0.34986129E-13</totfact>
</mgrwt>
</event>
<event>
 4    1 -0.5010510E-019  0.1491202E+02  0.7818608E-02  0.1870765E+00
          2   -1    0    0  501    0  0.00000000000E+00  0.00000000000E+00  0.11860149945E+03  0.11860149947E+03  0.25500000000E-02 0. -1.
         -2   -1    0    0    0  501 -0.00000000000E+00 -0.00000000000E+00 -0.46872678858E+00  0.46873372487E+00  0.25500000000E-02 0.  1.
         31    1    1    2    0    0  0.18982811519E+00 -0.31137978831E+00  0.59178287931E+02  0.59646137181E+02  0.74470750000E+01 0.  1.
        -31    1    1    2    0    0 -0.18982811519E+00  0.31137978831E+00  0.58954484726E+02  0.59424096017E+02  0.74470750000E+01 0. -1.
<mgrwt>
<rscale>  0 0.14912024E+02</rscale>
<asrwt>0</asrwt>
<pdfrwt beam="1">  1        2 0.98455600E+00 0.14912024E+02</pdfrwt>
<pdfrwt beam="2">  1       -2 0.99549056E+00 0.14912024E+02</pdfrwt>
<totfact>-0.36566781E-13</totfact>
</mgrwt>
</event>
<event>
 4    1  0.5010510E-019  0.1490805E+02  0.7818608E-02  0.1870888E+00
         -2   -1    0    0    0  501 -0.00000000000E+00  0.00000000000E+00  0.11811953960E+03  0.11811953963E+03  0.25500000000E-02 0.  1.
          2   -1    0    0  501    0  0.00000000000E+00 -0.00000000000E+00 -0.47038830042E+00  0.47039521221E+00  0.25500000000E-02 0. -1.
         31    1    1    2    0    0 -0.41011601033E-01  0.15628150316E+00  0.61038073036E+02  0.61490904952E+02  0.74470750000E+01 0.  1.
        -31    1    1    2    0    0  0.41011601033E-01 -0.15628150316E+00  0.56611078269E+02  0.57099029892E+02  0.74470750000E+01 0. -1.
<mgrwt>
<rscale>  0 0.14908046E+02</rscale>
<asrwt>0</asrwt>
<pdfrwt beam="2">  1        2 0.99898922E+00 0.14908046E+02</pdfrwt>
<pdfrwt beam="1">  1       -2 0.98058455E+00 0.14908046E+02</pdfrwt>
<totfact> 0.39615105E-13</totfact>
</mgrwt>
</event>
<event>
 4    1 -0.5010510E-019  0.1495230E+02  0.7818608E-02  0.1869527E+00
         -2   -1    0    0    0  501 -0.00000000000E+00  0.00000000000E+00  0.12017207352E+03  0.12017207354E+03  0.25500000000E-02 0.  1.
          2   -1    0    0  501    0  0.00000000000E+00 -0.00000000000E+00 -0.46510333888E+00  0.46511032921E+00  0.25500000000E-02 0. -1.
         31    1    1    2    0    0 -0.20766091001E+00  0.36165177755E+00  0.63967558852E+02  0.64400942747E+02  0.74470750000E+01 0.  1.
        -31    1    1    2    0    0  0.20766091001E+00 -0.36165177755E+00  0.55739411326E+02  0.56236241127E+02  0.74470750000E+01 0. -1.
<mgrwt>
<rscale>  0 0.14952305E+02</rscale>
<asrwt>0</asrwt>
<pdfrwt beam="2">  1        2 0.98787562E+00 0.14952305E+02</pdfrwt>
<pdfrwt beam="1">  1       -2 0.99751264E+00 0.14952305E+02</pdfrwt>
<totfact>-0.15950767E-13</totfact>
</mgrwt>
</event>
<event>
 4    1  0.5010510E-019  0.1491654E+02  0.7818608E-02  0.1870626E+00
          2   -1    0    0  501    0  0.00000000000E+00  0.00000000000E+00  0.12027440445E+03  0.12027440448E+03  0.25500000000E-02 0.  1.
         -2   -1    0    0    0  501 -0.00000000000E+00 -0.00000000000E+00 -0.46248706104E+00  0.46249409091E+00  0.25500000000E-02 0. -1.
         31    1    1    2    0    0 -0.15361770844E+00 -0.25750815389E+00  0.62151223843E+02  0.62596513163E+02  0.74470750000E+01 0.  1.
        -31    1    1    2    0    0  0.15361770844E+00  0.25750815389E+00  0.57660693545E+02  0.58140385404E+02  0.74470750000E+01 0.  1.
<mgrwt>
<rscale>  0 0.14916539E+02</rscale>
<asrwt>0</asrwt>
<pdfrwt beam="1">  1        2 0.99833715E+00 0.14916539E+02</pdfrwt>
<pdfrwt beam="2">  1       -2 0.98234326E+00 0.14916539E+02</pdfrwt>
<totfact> 0.43402011E-13</totfact>
</mgrwt>
</event>
<event>
 4    1  0.5010510E-019  0.1493288E+02  0.7818608E-02  0.1870124E+00
          2   -1    0    0  501    0  0.00000000000E+00  0.00000000000E+00  0.12031068317E+03  0.12031068320E+03  0.25500000000E-02 0. -1.
         -2   -1    0    0    0  501 -0.00000000000E+00 -0.00000000000E+00 -0.46336133689E+00  0.46336835350E+00  0.25500000000E-02 0.  1.
         31    1    1    2    0    0  0.23687859890E+00 -0.68775223522E-01  0.63785332180E+02  0.64219065462E+02  0.74470750000E+01 0. -1.
        -31    1    1    2    0    0 -0.23687859890E+00  0.68775223522E-01  0.56061989655E+02  0.56554986090E+02  0.74470750000E+01 0.  1.
<mgrwt>
<rscale>  0 0.14932882E+02</rscale>
<asrwt>0</asrwt>
<pdfrwt beam="1">  1        2 0.99864436E+00 0.14932882E+02</pdfrwt>
<pdfrwt beam="2">  1       -2 0.98419425E+00 0.14932882E+02</pdfrwt>
<totfact> 0.24039203E-13</totfact>
</mgrwt>
</event>
<event>
 4    1 -0.5010510E-019  0.1491280E+02  0.7818608E-02  0.1870741E+00
          2   -1    0    0  501    0  0.00000000000E+00  0.00000000000E+00  0.11841080215E+03  0.11841080217E+03  0.25500000000E-02 0.  1.
         -2   -1    0    0    0  501 -0.00000000000E+00 -0.00000000000E+00 -0.46953026384E+00  0.46953718826E+00  0.25500000000E-02 0. -1.
         31    1    1    2    0    0 -0.18466335062E+00  0.50605879100E-01  0.61520095292E+02  0.61969490173E+02  0.74470750000E+01 0.  1.
        -31    1    1    2    0    0  0.18466335062E+00 -0.50605879100E-01  0.56421176590E+02  0.56910849188E+02  0.74470750000E+01 0. -1.
<mgrwt>
<rscale>  0 0.14912796E+02</rscale>
<asrwt>0</asrwt>
<pdfrwt beam="1">  1        2 0.98298582E+00 0.14912796E+02</pdfrwt>
<pdfrwt beam="2">  1       -2 0.99718391E+00 0.14912796E+02</pdfrwt>
<totfact>-0.37274864E-13</totfact>
</mgrwt>
</event>
<event>
 4    1 -0.5010510E-019  0.1497446E+02  0.7818608E-02  0.1868849E+00
          2   -1    0    0  501    0  0.00000000000E+00  0.00000000000E+00  0.11954420086E+03  0.11954420089E+03  0.25500000000E-02 0. -1.
         -2   -1    0    0    0  501 -0.00000000000E+00 -0.00000000000E+00 -0.46893285608E+00  0.46893978933E+00  0.25500000000E-02 0.  1.
         31    1    1    2    0    0  0.14460595332E+00 -0.18749632657E+00  0.65446839147E+02  0.65869596523E+02  0.74470750000E+01 0. -1.
        -31    1    1    2    0    0 -0.14460595332E+00  0.18749632657E+00  0.53628428857E+02  0.54143544153E+02  0.74470750000E+01 0.  1.
<mgrwt>
<rscale>  0 0.14974461E+02</rscale>
<asrwt>0</asrwt>
<pdfrwt beam="1">  1        2 0.99235262E+00 0.14974461E+02</pdfrwt>
<pdfrwt beam="2">  1       -2 0.99595741E+00 0.14974461E+02</pdfrwt>
<totfact>-0.13908866E-13</totfact>
</mgrwt>
</event>
<event>
 4    1 -0.5010510E-019  0.1493672E+02  0.7818608E-02  0.1870006E+00
         -2   -1    0    0    0  501 -0.00000000000E+00  0.00000000000E+00  0.11954033059E+03  0.11954033062E+03  0.25500000000E-02 0. -1.
          2   -1    0    0  501    0  0.00000000000E+00 -0.00000000000E+00 -0.46658734578E+00  0.46659431388E+00  0.25500000000E-02 0.  1.
         31    1    1    2    0    0 -0.53381969331E+00 -0.55450489645E-01  0.60915905476E+02  0.61371772862E+02  0.74470750000E+01 0. -1.
        -31    1    1    2    0    0  0.53381969331E+00  0.55450489645E-01  0.58157837769E+02  0.58635152070E+02  0.74470750000E+01 0.  1.
<mgrwt>
<rscale>  0 0.14936723E+02</rscale>
<asrwt>0</asrwt>
<pdfrwt beam="2">  1        2 0.99099514E+00 0.14936723E+02</pdfrwt>
<pdfrwt beam="1">  1       -2 0.99230122E+00 0.14936723E+02</pdfrwt>
<totfact>-0.11996421E-13</totfact>
</mgrwt>
</event>
<event>
 4    1 -0.5010510E-019  0.1490922E+02  0.7818608E-02  0.1870851E+00
          2   -1    0    0  501    0  0.00000000000E+00  0.00000000000E+00  0.11843964949E+03  0.11843964952E+03  0.25500000000E-02 0.  1.
         -2   -1    0    0    0  501 -0.00000000000E+00 -0.00000000000E+00 -0.46919064122E+00  0.46919757065E+00  0.25500000000E-02 0. -1.
         31    1    1    2    0    0  0.14987323307E+00  0.10285277122E+00  0.56740406136E+02  0.57227315639E+02  0.74470750000E+01 0. -1.
        -31    1    1    2    0    0 -0.14987323307E+00 -0.10285277122E+00  0.61230052714E+02  0.61681531451E+02  0.74470750000E+01 0.  1.
<mgrwt>
<rscale>  0 0.14909217E+02</rscale>
<asrwt>0</asrwt>
<pdfrwt beam="1">  1        2 0.98322154E+00 0.14909217E+02</pdfrwt>
<pdfrwt beam="2">  1       -2 0.99646644E+00 0.14909217E+02</pdfrwt>
<totfact>-0.41203866E-13</totfact>
</mgrwt>
</event>
<event>
 4    1 -0.5010510E-019  0.1490878E+02  0.7818608E-02  0.1870865E+00
          2   -1    0    0  501    0  0.00000000000E+00  0.00000000000E+00  0.11842322418E+03  0.11842322421E+03  0.25500000000E-02 0.  1.
         -2   -1    0    0    0  501 -0.00000000000E+00 -0.00000000000E+00 -0.46922807997E+00  0.46923500885E+00  0.25500000000E-02 0. -1.
         31    1    1    2    0    0 -0.29043623250E+00  0.28232249531E-01  0.57745711536E+02  0.58224662104E+02  0.74470750000E+01 0. -1.
        -31    1    1    2    0    0  0.29043623250E+00 -0.28232249531E-01  0.60208284563E+02  0.60667797111E+02  0.74470750000E+01 0.  1.
<mgrwt>
<rscale>  0 0.14908778E+02</rscale>
<asrwt>0</asrwt>
<pdfrwt beam="1">  1        2 0.98308604E+00 0.14908778E+02</pdfrwt>
<pdfrwt beam="2">  1       -2 0.99654509E+00 0.14908778E+02</pdfrwt>
<totfact>-0.41638648E-13</totfact>
</mgrwt>
</event>
<event>
 4    1  0.5010510E-019  0.1492256E+02  0.7818608E-02  0.1870441E+00
         -2   -1    0    0    0  501 -0.00000000000E+00  0.00000000000E+00  0.11871619009E+03  0.11871619012E+03  0.25500000000E-02 0.  1.
          2   -1    0    0  501    0  0.00000000000E+00 -0.00000000000E+00 -0.46893583931E+00  0.46894277251E+00  0.25500000000E-02 0. -1.
         31    1    1    2    0    0  0.19869481145E+00  0.41232523980E+00  0.58742822127E+02  0.59214758036E+02  0.74470750000E+01 0. -1.
        -31    1    1    2    0    0 -0.19869481145E+00 -0.41232523980E+00  0.59504432127E+02  0.59970374857E+02  0.74470750000E+01 0. -1.
<mgrwt>
<rscale>  0 0.14922559E+02</rscale>
<asrwt>0</asrwt>
<pdfrwt beam="2">  1        2 0.99593658E+00 0.14922559E+02</pdfrwt>
<pdfrwt beam="1">  1       -2 0.98550607E+00 0.14922559E+02</pdfrwt>
<totfact> 0.37300968E-13</totfact>
</mgrwt>
</event>
<event>
 4    1  0.5010510E-019  0.1490670E+02  0.7818608E-02  0.1870929E+00
         -2   -1    0    0    0  501 -0.00000000000E+00  0.00000000000E+00  0.11850093326E+03  0.11850093328E+03  0.25500000000E-02 0.  1.
          2   -1    0    0  501    0  0.00000000000E+00 -0.00000000000E+00 -0.46878995411E+00  0.46879688947E+00  0.25500000000E-02 0. -1.
         31    1    1    2    0    0  0.26450787884E+00  0.14306784346E+00  0.59460601682E+02  0.59925891827E+02  0.74470750000E+01 0.  1.
        -31    1    1    2    0    0 -0.26450787884E+00 -0.14306784346E+00  0.58571541621E+02  0.59043838347E+02  0.74470750000E+01 0.  1.
<mgrwt>
<rscale>  0 0.14906705E+02</rscale>
<asrwt>0</asrwt>
<pdfrwt beam="2">  1        2 0.99562086E+00 0.14906705E+02</pdfrwt>
<pdfrwt beam="1">  1       -2 0.98372497E+00 0.14906705E+02</pdfrwt>
<totfact> 0.62845072E-13</totfact>
</mgrwt>
</event>
<event>
 4    1 -0.5010510E-019  0.1491945E+02  0.7818608E-02  0.1870537E+00
         -2   -1    0    0    0  501 -0.00000000000E+00  0.00000000000E+00  0.11943894954E+03  0.11943894957E+03  0.25500000000E-02 0.  1.
          2   -1    0    0  501    0  0.00000000000E+00 -0.00000000000E+00 -0.46590383446E+00  0.46591081278E+00  0.25500000000E-02 0. -1.
         31    1    1    2    0    0 -0.33220105659E+00 -0.27924599266E+00  0.59606444224E+02  0.60071419619E+02  0.74470750000E+01 0. -1.
        -31    1    1    2    0    0  0.33220105659E+00  0.27924599266E+00  0.59366601481E+02  0.59833440761E+02  0.74470750000E+01 0.  1.
<mgrwt>
<rscale>  0 0.14919448E+02</rscale>
<asrwt>0</asrwt>
<pdfrwt beam="2">  1        2 0.98954582E+00 0.14919448E+02</pdfrwt>
<pdfrwt beam="1">  1       -2 0.99145728E+00 0.14919448E+02</pdfrwt>
<totfact>-0.94435603E-14</totfact>
</mgrwt>
</event>
<event>
 4    1  0.5010510E-019  0.1492995E+02  0.7818608E-02  0.1870214E+00
         -2   -1    0    0    0  501 -0.00000000000E+00  0.00000000000E+00  0.11875660208E+03  0.11875660210E+03  0.25500000000E-02 0. -1.
          2   -1    0    0  501    0  0.00000000000E+00 -0.00000000000E+00 -0.46924070394E+00  0.46924763264E+00  0.25500000000E-02 0.  1.
         31    1    1    2    0    0 -0.10952563292E+00 -0.48581874298E+00  0.58045701255E+02  0.58523588201E+02  0.74470750000E+01 0.  1.
        -31    1    1    2    0    0  0.10952563292E+00  0.48581874298E+00  0.60241660118E+02  0.60702261536E+02  0.74470750000E+01 0. -1.
<mgrwt>
<rscale>  0 0.14929949E+02</rscale>
<asrwt>0</asrwt>
<pdfrwt beam="2">  1        2 0.99658284E+00 0.14929949E+02</pdfrwt>
<pdfrwt beam="1">  1       -2 0.98584274E+00 0.14929949E+02</pdfrwt>
<totfact> 0.30197893E-13</totfact>
</mgrwt>
</event>
<event>
 4    1 -0.5010510E-019  0.1495049E+02  0.7818608E-02  0.1869583E+00
         -2   -1    0    0    0  501 -0.00000000000E+00  0.00000000000E+00  0.11975862533E+03  0.11975862535E+03  0.25500000000E-02 0.  1.
          2   -1    0    0  501    0  0.00000000000E+00 -0.00000000000E+00 -0.46659581907E+00  0.46660278704E+00  0.25500000000E-02 0. -1.
         31    1    1    2    0    0 -0.46081661960E+00  0.44771853354E+00  0.58946608584E+02  0.59418636752E+02  0.74470750000E+01 0. -1.
        -31    1    1    2    0    0  0.46081661960E+00 -0.44771853354E+00  0.60345420924E+02  0.60806591390E+02  0.74470750000E+01 0.  1.
<mgrwt>
<rscale>  0 0.14950491E+02</rscale>
<asrwt>0</asrwt>
<pdfrwt beam="2">  1        2 0.99102009E+00 0.14950491E+02</pdfrwt>
<pdfrwt beam="1">  1       -2 0.99410630E+00 0.14950491E+02</pdfrwt>
<totfact>-0.16075110E-13</totfact>
</mgrwt>
</event>
<event>
 4    1  0.5010510E-019  0.1493590E+02  0.7818608E-02  0.1870031E+00
         -2   -1    0    0    0  501 -0.00000000000E+00  0.00000000000E+00  0.11873351551E+03  0.11873351554E+03  0.25500000000E-02 0. -1.
          2   -1    0    0  501    0  0.00000000000E+00 -0.00000000000E+00 -0.46970589668E+00  0.46971281851E+00  0.25500000000E-02 0.  1.
         31    1    1    2    0    0  0.24113732137E+00 -0.39392136950E+00  0.56633469524E+02  0.57122868605E+02  0.74470750000E+01 0.  1.
        -31    1    1    2    0    0 -0.24113732137E+00  0.39392136950E+00  0.61630340091E+02  0.62080359752E+02  0.74470750000E+01 0. -1.
<mgrwt>
<rscale>  0 0.14935896E+02</rscale>
<asrwt>0</asrwt>
<pdfrwt beam="2">  1        2 0.99756615E+00 0.14935896E+02</pdfrwt>
<pdfrwt beam="1">  1       -2 0.98565569E+00 0.14935896E+02</pdfrwt>
<totfact> 0.25409095E-13</totfact>
</mgrwt>
</event>
<event>
 4    1  0.5010510E-019  0.1491297E+02  0.7818608E-02  0.1870736E+00
          2   -1    0    0  501    0  0.00000000000E+00  0.00000000000E+00  0.12006907310E+03  0.12006907313E+03  0.25500000000E-02 0. -1.
         -2   -1    0    0    0  501 -0.00000000000E+00 -0.00000000000E+00 -0.46305645969E+00  0.46306348092E+00  0.25500000000E-02 0.  1.
         31    1    1    2    0    0  0.35945601039E-01 -0.27081774916E+00  0.61873487870E+02  0.62320639130E+02  0.74470750000E+01 0.  1.
        -31    1    1    2    0    0 -0.35945601039E-01  0.27081774916E+00  0.57732528771E+02  0.58211497479E+02  0.74470750000E+01 0.  1.
<mgrwt>
<rscale>  0 0.14912972E+02</rscale>
<asrwt>0</asrwt>
<pdfrwt beam="1">  1        2 0.99664404E+00 0.14912972E+02</pdfrwt>
<pdfrwt beam="2">  1       -2 0.98354158E+00 0.14912972E+02</pdfrwt>
<totfact> 0.55982581E-13</totfact>
</mgrwt>
</event>
<event>
 4    1 -0.5010510E-019  0.1501763E+02  0.7818608E-02  0.1867531E+00
          2   -1    0    0  501    0  0.00000000000E+00  0.00000000000E+00  0.12040651759E+03  0.12040651762E+03  0.25500000000E-02 0.  1.
         -2   -1    0    0    0  501 -0.00000000000E+00 -0.00000000000E+00 -0.46826260133E+00  0.46826954450E+00  0.25500000000E-02 0. -1.
         31    1    1    2    0    0  0.88279103056E+00 -0.37647506733E+00  0.59582206827E+02  0.60053470757E+02  0.74470750000E+01 0.  1.
        -31    1    1    2    0    0 -0.88279103056E+00  0.37647506733E+00  0.60356048164E+02  0.60821316407E+02  0.74470750000E+01 0. -1.
<mgrwt>
<rscale>  0 0.15017628E+02</rscale>
<asrwt>0</asrwt>
<pdfrwt beam="1">  1        2 0.99947731E+00 0.15017628E+02</pdfrwt>
<pdfrwt beam="2">  1       -2 0.99456724E+00 0.15017628E+02</pdfrwt>
<totfact>-0.20180783E-14</totfact>
</mgrwt>
</event>
<event>
 4    1  0.5010510E-019  0.1493337E+02  0.7818608E-02  0.1870108E+00
         -2   -1    0    0    0  501 -0.00000000000E+00  0.00000000000E+00  0.11863556008E+03  0.11863556011E+03  0.25500000000E-02 0.  1.
          2   -1    0    0  501    0  0.00000000000E+00 -0.00000000000E+00 -0.46993498156E+00  0.46994190002E+00  0.25500000000E-02 0. -1.
         31    1    1    2    0    0  0.17647830822E+00  0.18809552734E+00  0.55291475726E+02  0.55791332109E+02  0.74470750000E+01 0. -1.
        -31    1    1    2    0    0 -0.17647830822E+00 -0.18809552734E+00  0.62874149375E+02  0.63314169900E+02  0.74470750000E+01 0.  1.
<mgrwt>
<rscale>  0 0.14933374E+02</rscale>
<asrwt>0</asrwt>
<pdfrwt beam="2">  1        2 0.99804751E+00 0.14933374E+02</pdfrwt>
<pdfrwt beam="1">  1       -2 0.98484762E+00 0.14933374E+02</pdfrwt>
<totfact> 0.27269808E-13</totfact>
</mgrwt>
</event>
<event>
 4    1 -0.5010510E-019  0.1497840E+02  0.7818608E-02  0.1868728E+00
          2   -1    0    0  501    0  0.00000000000E+00  0.00000000000E+00  0.11937922136E+03  0.11937922139E+03  0.25500000000E-02 0.  1.
         -2   -1    0    0    0  501 -0.00000000000E+00 -0.00000000000E+00 -0.46982809651E+00  0.46983501654E+00  0.25500000000E-02 0. -1.
         31    1    1    2    0    0  0.41932464787E+00 -0.96973116393E-01  0.64786128088E+02  0.65214159166E+02  0.74470750000E+01 0.  1.
        -31    1    1    2    0    0 -0.41932464787E+00  0.96973116393E-01  0.54123265173E+02  0.54634897236E+02  0.74470750000E+01 0. -1.
<mgrwt>
<rscale>  0 0.14978402E+02</rscale>
<asrwt>0</asrwt>
<pdfrwt beam="1">  1        2 0.99099585E+00 0.14978402E+02</pdfrwt>
<pdfrwt beam="2">  1       -2 0.99784593E+00 0.14978402E+02</pdfrwt>
<totfact>-0.10311583E-13</totfact>
</mgrwt>
</event>
<event>
 4    1 -0.5010510E-019  0.1491624E+02  0.7818608E-02  0.1870635E+00
         -2   -1    0    0    0  501 -0.00000000000E+00  0.00000000000E+00  0.12031907529E+03  0.12031907532E+03  0.25500000000E-02 0. -1.
          2   -1    0    0  501    0  0.00000000000E+00 -0.00000000000E+00 -0.46229675631E+00  0.46230378907E+00  0.25500000000E-02 0.  1.
         31    1    1    2    0    0 -0.13180875617E+00  0.38306177174E+00  0.60111009919E+02  0.60571912215E+02  0.74470750000E+01 0.  1.
        -31    1    1    2    0    0  0.13180875617E+00 -0.38306177174E+00  0.59745768615E+02  0.60209466891E+02  0.74470750000E+01 0.  1.
<mgrwt>
<rscale>  0 0.14916239E+02</rscale>
<asrwt>0</asrwt>
<pdfrwt beam="2">  1        2 0.98194199E+00 0.14916239E+02</pdfrwt>
<pdfrwt beam="1">  1       -2 0.99870495E+00 0.14916239E+02</pdfrwt>
<totfact>-0.23776048E-13</totfact>
</mgrwt>
</event>
<event>
 4    1 -0.5010510E-019  0.1492088E+02  0.7818608E-02  0.1870492E+00
          2   -1    0    0  501    0  0.00000000000E+00  0.00000000000E+00  0.11868299803E+03  0.11868299806E+03  0.25500000000E-02 0.  1.
         -2   -1    0    0    0  501 -0.00000000000E+00 -0.00000000000E+00 -0.46896163896E+00  0.46896857178E+00  0.25500000000E-02 0. -1.
         31    1    1    2    0    0  0.14606154457E-01 -0.68030078331E-01  0.55585923887E+02  0.56082606054E+02  0.74470750000E+01 0. -1.
        -31    1    1    2    0    0 -0.14606154457E-01  0.68030078331E-01  0.62628112504E+02  0.63069360575E+02  0.74470750000E+01 0.  1.
<mgrwt>
<rscale>  0 0.14920883E+02</rscale>
<asrwt>0</asrwt>
<pdfrwt beam="1">  1        2 0.98523183E+00 0.14920883E+02</pdfrwt>
<pdfrwt beam="2">  1       -2 0.99599006E+00 0.14920883E+02</pdfrwt>
<totfact>-0.31414740E-13</totfact>
</mgrwt>
</event>
<event>
 4    1  0.5010510E-019  0.1491402E+02  0.7818608E-02  0.1870704E+00
         -2   -1    0    0    0  501 -0.00000000000E+00  0.00000000000E+00  0.11885137622E+03  0.11885137625E+03  0.25500000000E-02 0.  1.
          2   -1    0    0  501    0  0.00000000000E+00 -0.00000000000E+00 -0.46786672281E+00  0.46787367185E+00  0.25500000000E-02 0. -1.
         31    1    1    2    0    0 -0.35358186572E+00  0.15143069587E+00  0.59287311096E+02  0.59754431923E+02  0.74470750000E+01 0. -1.
        -31    1    1    2    0    0  0.35358186572E+00 -0.15143069587E+00  0.59096198401E+02  0.59564817996E+02  0.74470750000E+01 0. -1.
<mgrwt>
<rscale>  0 0.14914023E+02</rscale>
<asrwt>0</asrwt>
<pdfrwt beam="2">  1        2 0.99367935E+00 0.14914023E+02</pdfrwt>
<pdfrwt beam="1">  1       -2 0.98661504E+00 0.14914023E+02</pdfrwt>
<totfact> 0.32165590E-13</totfact>
</mgrwt>
</event>
<event>
 4    1  0.5010510E-019  0.1490483E+02  0.7818608E-02  0.1870986E+00
         -2   -1    0    0    0  501 -0.00000000000E+00  0.00000000000E+00  0.11802465386E+03  0.11802465389E+03  0.25500000000E-02 0.  1.
          2   -1    0    0  501    0  0.00000000000E+00 -0.00000000000E+00 -0.47056364286E+00  0.47057055207E+00  0.25500000000E-02 0. -1.
         31    1    1    2    0    0  0.32778865112E-01  0.10401097581E+00  0.60845654499E+02  0.61299791927E+02  0.74470750000E+01 0.  1.
        -31    1    1    2    0    0 -0.32778865112E-01 -0.10401097581E+00  0.56708435721E+02  0.57195432516E+02  0.74470750000E+01 0. -1.
<mgrwt>
<rscale>  0 0.14904834E+02</rscale>
<asrwt>0</asrwt>
<pdfrwt beam="2">  1        2 0.99935693E+00 0.14904834E+02</pdfrwt>
<pdfrwt beam="1">  1       -2 0.97980142E+00 0.14904834E+02</pdfrwt>
<totfact> 0.30013506E-13</totfact>
</mgrwt>
</event>
<event>
 4    1 -0.5010510E-019  0.1495148E+02  0.7818608E-02  0.1869553E+00
          2   -1    0    0  501    0  0.00000000000E+00  0.00000000000E+00  0.11935195848E+03  0.11935195851E+03  0.25500000000E-02 0.  1.
         -2   -1    0    0    0  501 -0.00000000000E+00 -0.00000000000E+00 -0.46824745933E+00  0.46825440272E+00  0.25500000000E-02 0. -1.
         31    1    1    2    0    0  0.41097109713E+00 -0.24324746482E+00  0.55860814877E+02  0.56357054850E+02  0.74470750000E+01 0. -1.
        -31    1    1    2    0    0 -0.41097109713E+00  0.24324746482E+00  0.63022896145E+02  0.63463158062E+02  0.74470750000E+01 0.  1.
<mgrwt>
<rscale>  0 0.14951477E+02</rscale>
<asrwt>0</asrwt>
<pdfrwt beam="1">  1        2 0.99075735E+00 0.14951477E+02</pdfrwt>
<pdfrwt beam="2">  1       -2 0.99450116E+00 0.14951477E+02</pdfrwt>
<totfact>-0.16681405E-13</totfact>
</mgrwt>
</event>
