<event>
 4    1  0.4231559E-004  0.5871424E+01  0.7818608E-02  0.2432464E+00
          1   -1    0    0  501    0  0.00000000000E+00  0.00000000000E+00  0.50531944981E+02  0.50531945232E+02  0.50400000000E-02 0. -1.
         -1   -1    0    0    0  501 -0.00000000000E+00 -0.00000000000E+00 -0.17051612590E+00  0.17059059409E+00  0.50400000000E-02 0.  1.
         31    1    1    2    0    0 -0.52745903006E-01 -0.49217354505E+00  0.30510199869E+02  0.30644898647E+02  0.28271010000E+01 0. -1.
        -31    1    1    2    0    0  0.52745903006E-01  0.49217354505E+00  0.19851228985E+02  0.20057637179E+02  0.28271010000E+01 0.  1.
<mgrwt>
<rscale>  0 0.58714243E+01</rscale>
<asrwt>0</asrwt>
<pdfrwt beam="1">  1        1 0.41924404E+00 0.58714243E+01</pdfrwt>
<pdfrwt beam="2">  1       -1 0.36243023E+00 0.58714243E+01</pdfrwt>
<totfact> 0.68688445E-02</totfact>
</mgrwt>
</event>
<event>
 4    1  0.4231559E-004  0.6712985E+01  0.7818608E-02  0.2330940E+00
          1   -1    0    0  501    0  0.00000000000E+00  0.00000000000E+00  0.83614587683E+02  0.83614587835E+02  0.50400000000E-02 0. -1.
         -1   -1    0    0    0  501 -0.00000000000E+00 -0.00000000000E+00 -0.13469047204E+00  0.13478473526E+00  0.50400000000E-02 0.  1.
         31    1    1    2    0    0 -0.79427610350E+00  0.21376324747E-02  0.62020826720E+02  0.62090307828E+02  0.28271010000E+01 0. -1.
        -31    1    1    2    0    0  0.79427610350E+00 -0.21376324747E-02  0.21459070491E+02  0.21659064742E+02  0.28271010000E+01 0.  1.
<mgrwt>
<rscale>  0 0.67129850E+01</rscale>
<asrwt>0</asrwt>
<pdfrwt beam="1">  1        1 0.69249841E+00 0.67129850E+01</pdfrwt>
<pdfrwt beam="2">  1       -1 0.28682497E+00 0.67129850E+01</pdfrwt>
<totfact> 0.10099762E-02</totfact>
</mgrwt>
</event>
<event>
 4    1  0.4231559E-004  0.6071043E+01  0.7818608E-02  0.2406268E+00
          1   -1    0    0  501    0  0.00000000000E+00  0.00000000000E+00  0.51797368762E+02  0.51797369007E+02  0.50400000000E-02 0.  1.
         -1   -1    0    0    0  501 -0.00000000000E+00 -0.00000000000E+00 -0.17785708723E+00  0.17792848304E+00  0.50400000000E-02 0. -1.
         31    1    1    2    0    0  0.79406782516E+00 -0.18544564099E+00  0.19420584632E+02  0.19642213249E+02  0.28271010000E+01 0. -1.
        -31    1    1    2    0    0 -0.79406782516E+00  0.18544564099E+00  0.32198927043E+02  0.32333084241E+02  0.28271010000E+01 0. -1.
<mgrwt>
<rscale>  0 0.60710430E+01</rscale>
<asrwt>0</asrwt>
<pdfrwt beam="1">  1        1 0.42976812E+00 0.60710430E+01</pdfrwt>
<pdfrwt beam="2">  1       -1 0.37800436E+00 0.60710430E+01</pdfrwt>
<totfact> 0.50171648E-02</totfact>
</mgrwt>
</event>
<event>
 4    1  0.4231559E-004  0.7186058E+01  0.7818608E-02  0.2282635E+00
          1   -1    0    0  501    0  0.00000000000E+00  0.00000000000E+00  0.62575127831E+02  0.62575128034E+02  0.50400000000E-02 0.  1.
         -1   -1    0    0    0  501 -0.00000000000E+00 -0.00000000000E+00 -0.20627876178E+00  0.20634032364E+00  0.50400000000E-02 0. -1.
         31    1    1    2    0    0  0.19294733475E+01 -0.10897864669E+01  0.31907858743E+02  0.32109413753E+02  0.28271010000E+01 0. -1.
        -31    1    1    2    0    0 -0.19294733475E+01  0.10897864669E+01  0.30460990326E+02  0.30672054605E+02  0.28271010000E+01 0.  1.
<mgrwt>
<rscale>  0 0.71860584E+01</rscale>
<asrwt>0</asrwt>
<pdfrwt beam="1">  1        1 0.51912111E+00 0.71860584E+01</pdfrwt>
<pdfrwt beam="2">  1       -1 0.43844708E+00 0.71860584E+01</pdfrwt>
<totfact> 0.86621447E-03</totfact>
</mgrwt>
</event>
<event>
 4    1  0.4231559E-004  0.6003185E+01  0.7818608E-02  0.2415009E+00
         -1   -1    0    0    0  501 -0.00000000000E+00  0.00000000000E+00  0.50727953263E+02  0.50727953513E+02  0.50400000000E-02 0. -1.
          1   -1    0    0  501    0  0.00000000000E+00 -0.00000000000E+00 -0.17756936526E+00  0.17764087672E+00  0.50400000000E-02 0.  1.
         31    1    1    2    0    0  0.28423049328E-01 -0.98609711008E+00  0.27051121822E+02  0.27216334934E+02  0.28271010000E+01 0. -1.
        -31    1    1    2    0    0 -0.28423049328E-01  0.98609711008E+00  0.23499262076E+02  0.23689259456E+02  0.28271010000E+01 0.  1.
<mgrwt>
<rscale>  0 0.60031848E+01</rscale>
<asrwt>0</asrwt>
<pdfrwt beam="2">  1        1 0.37736801E+00 0.60031848E+01</pdfrwt>
<pdfrwt beam="1">  1       -1 0.42092307E+00 0.60031848E+01</pdfrwt>
<totfact> 0.43709635E-02</totfact>
</mgrwt>
</event>
<event>
 4    1  0.4231559E-004  0.6436026E+01  0.7818608E-02  0.2361908E+00
         -1   -1    0    0    0  501 -0.00000000000E+00  0.00000000000E+00  0.28630771570E+02  0.28630772013E+02  0.50400000000E-02 0. -1.
          1   -1    0    0  501    0  0.00000000000E+00 -0.00000000000E+00 -0.36167702701E+00  0.36171214172E+00  0.50400000000E-02 0.  1.
         31    1    1    2    0    0 -0.14433814713E+01 -0.34421922565E+00  0.15943576135E+02  0.16260133978E+02  0.28271010000E+01 0.  1.
        -31    1    1    2    0    0  0.14433814713E+01  0.34421922565E+00  0.12325518408E+02  0.12732350177E+02  0.28271010000E+01 0. -1.
<mgrwt>
<rscale>  0 0.64360260E+01</rscale>
<asrwt>0</asrwt>
<pdfrwt beam="2">  1        1 0.76158314E+00 0.64360260E+01</pdfrwt>
<pdfrwt beam="1">  1       -1 0.23973014E+00 0.64360260E+01</pdfrwt>
<totfact> 0.71033957E-03</totfact>
</mgrwt>
</event>
<event>
 4    1  0.4231559E-004  0.5969899E+01  0.7818608E-02  0.2419358E+00
         -1   -1    0    0    0  501 -0.00000000000E+00  0.00000000000E+00  0.45889297358E+02  0.45889297634E+02  0.50400000000E-02 0. -1.
          1   -1    0    0  501    0  0.00000000000E+00 -0.00000000000E+00 -0.19412828378E+00  0.19419369754E+00  0.50400000000E-02 0.  1.
         31    1    1    2    0    0  0.34062639914E+00 -0.89184556433E+00  0.23445980038E+02  0.23635098791E+02  0.28271010000E+01 0. -1.
        -31    1    1    2    0    0 -0.34062639914E+00  0.89184556433E+00  0.22249189035E+02  0.22448392541E+02  0.28271010000E+01 0.  1.
<mgrwt>
<rscale>  0 0.59698992E+01</rscale>
<asrwt>0</asrwt>
<pdfrwt beam="2">  1        1 0.41224537E+00 0.59698992E+01</pdfrwt>
<pdfrwt beam="1">  1       -1 0.38105055E+00 0.59698992E+01</pdfrwt>
<totfact> 0.56529460E-02</totfact>
</mgrwt>
</event>
<event>
 4    1  0.4231559E-004  0.5817801E+01  0.7818608E-02  0.2439758E+00
         -1   -1    0    0    0  501 -0.00000000000E+00  0.00000000000E+00  0.25152435998E+02  0.25152436503E+02  0.50400000000E-02 0.  1.
          1   -1    0    0  501    0  0.00000000000E+00 -0.00000000000E+00 -0.33639742043E+00  0.33643517366E+00  0.50400000000E-02 0. -1.
         31    1    1    2    0    0  0.24279992041E+00  0.58034445940E+00  0.13595398518E+02  0.13900471662E+02  0.28271010000E+01 0.  1.
        -31    1    1    2    0    0 -0.24279992041E+00 -0.58034445940E+00  0.11220640060E+02  0.11588400015E+02  0.28271010000E+01 0. -1.
<mgrwt>
<rscale>  0 0.58178010E+01</rscale>
<asrwt>0</asrwt>
<pdfrwt beam="2">  1        1 0.70783866E+00 0.58178010E+01</pdfrwt>
<pdfrwt beam="1">  1       -1 0.21075982E+00 0.58178010E+01</pdfrwt>
<totfact> 0.23855567E-02</totfact>
</mgrwt>
</event>
<event>
 4    1  0.4231559E-004  0.5743375E+01  0.7818608E-02  0.2450070E+00
          1   -1    0    0  501    0  0.00000000000E+00  0.00000000000E+00  0.68877680552E+02  0.68877680737E+02  0.50400000000E-02 0. -1.
         -1   -1    0    0    0  501 -0.00000000000E+00 -0.00000000000E+00 -0.11967481066E+00  0.11978089124E+00  0.50400000000E-02 0.  1.
         31    1    1    2    0    0 -0.31610427867E+00 -0.38938274309E+00  0.33772536416E+02  0.33894369103E+02  0.28271010000E+01 0.  1.
        -31    1    1    2    0    0  0.31610427867E+00  0.38938274309E+00  0.34985469325E+02  0.35103092525E+02  0.28271010000E+01 0. -1.
<mgrwt>
<rscale>  0 0.57433751E+01</rscale>
<asrwt>0</asrwt>
<pdfrwt beam="1">  1        1 0.57051929E+00 0.57433751E+01</pdfrwt>
<pdfrwt beam="2">  1       -1 0.25484048E+00 0.57433751E+01</pdfrwt>
<totfact> 0.66163381E-02</totfact>
</mgrwt>
</event>
<event>
 4    1  0.4231559E-004  0.6058333E+01  0.7818608E-02  0.2407893E+00
          1   -1    0    0  501    0  0.00000000000E+00  0.00000000000E+00  0.39187289587E+02  0.39187289911E+02  0.50400000000E-02 0.  1.
         -1   -1    0    0    0  501 -0.00000000000E+00 -0.00000000000E+00 -0.23412628312E+00  0.23418052449E+00  0.50400000000E-02 0. -1.
         31    1    1    2    0    0 -0.77885172259E+00  0.33589528292E+00  0.15044594042E+02  0.15331397379E+02  0.28271010000E+01 0. -1.
        -31    1    1    2    0    0  0.77885172259E+00 -0.33589528292E+00  0.23908569263E+02  0.24090073057E+02  0.28271010000E+01 0.  1.
<mgrwt>
<rscale>  0 0.60583331E+01</rscale>
<asrwt>0</asrwt>
<pdfrwt beam="1">  1        1 0.32596430E+00 0.60583331E+01</pdfrwt>
<pdfrwt beam="2">  1       -1 0.49629585E+00 0.60583331E+01</pdfrwt>
<totfact> 0.21666028E-02</totfact>
</mgrwt>
</event>
<event>
 4    1  0.4231559E-004  0.6723244E+01  0.7818608E-02  0.2329833E+00
         -1   -1    0    0    0  501 -0.00000000000E+00  0.00000000000E+00  0.52806688352E+02  0.52806688593E+02  0.50400000000E-02 0.  1.
          1   -1    0    0  501    0  0.00000000000E+00 -0.00000000000E+00 -0.21396766304E+00  0.21402701331E+00  0.50400000000E-02 0. -1.
         31    1    1    2    0    0  0.11505614591E+00  0.18131835728E+01  0.26962302472E+02  0.27170924299E+02  0.28271010000E+01 0. -1.
        -31    1    1    2    0    0 -0.11505614591E+00 -0.18131835728E+01  0.25630418217E+02  0.25849791308E+02  0.28271010000E+01 0. -1.
<mgrwt>
<rscale>  0 0.67232443E+01</rscale>
<asrwt>0</asrwt>
<pdfrwt beam="2">  1        1 0.45444294E+00 0.67232443E+01</pdfrwt>
<pdfrwt beam="1">  1       -1 0.43841237E+00 0.67232443E+01</pdfrwt>
<totfact> 0.16423881E-02</totfact>
</mgrwt>
</event>
<event>
 4    1  0.4231559E-004  0.7200367E+01  0.7818608E-02  0.2281256E+00
          1   -1    0    0  501    0  0.00000000000E+00  0.00000000000E+00  0.35713484446E+02  0.35713484801E+02  0.50400000000E-02 0. -1.
         -1   -1    0    0    0  501 -0.00000000000E+00 -0.00000000000E+00 -0.36290724686E+00  0.36294224255E+00  0.50400000000E-02 0.  1.
         31    1    1    2    0    0 -0.10646633438E+01 -0.45201626528E+00  0.81279654133E+01  0.86829803964E+01  0.28271010000E+01 0.  1.
        -31    1    1    2    0    0  0.10646633438E+01  0.45201626528E+00  0.27222611786E+02  0.27393446648E+02  0.28271010000E+01 0. -1.
<mgrwt>
<rscale>  0 0.72003667E+01</rscale>
<asrwt>0</asrwt>
<pdfrwt beam="1">  1        1 0.29830514E+00 0.72003667E+01</pdfrwt>
<pdfrwt beam="2">  1       -1 0.76604251E+00 0.72003667E+01</pdfrwt>
<totfact> 0.23586265E-03</totfact>
</mgrwt>
</event>
<event>
 4    1  0.4231559E-004  0.6172209E+01  0.7818608E-02  0.2393535E+00
         -1   -1    0    0    0  501 -0.00000000000E+00  0.00000000000E+00  0.44798006933E+02  0.44798007216E+02  0.50400000000E-02 0. -1.
          1   -1    0    0  501    0  0.00000000000E+00 -0.00000000000E+00 -0.21256947316E+00  0.21262921370E+00  0.50400000000E-02 0.  1.
         31    1    1    2    0    0 -0.10360231121E+01  0.54323603434E+00  0.19347696613E+02  0.19588116642E+02  0.28271010000E+01 0.  1.
        -31    1    1    2    0    0  0.10360231121E+01 -0.54323603434E+00  0.25237740847E+02  0.25422519788E+02  0.28271010000E+01 0. -1.
<mgrwt>
<rscale>  0 0.61722085E+01</rscale>
<asrwt>0</asrwt>
<pdfrwt beam="2">  1        1 0.45116271E+00 0.61722085E+01</pdfrwt>
<pdfrwt beam="1">  1       -1 0.37217943E+00 0.61722085E+01</pdfrwt>
<totfact> 0.44522074E-02</totfact>
</mgrwt>
</event>
<event>
 4    1  0.4231559E-004  0.5969666E+01  0.7818608E-02  0.2419388E+00
         -1   -1    0    0    0  501 -0.00000000000E+00  0.00000000000E+00  0.59705181855E+02  0.59705182068E+02  0.50400000000E-02 0. -1.
          1   -1    0    0  501    0  0.00000000000E+00 -0.00000000000E+00 -0.14917758311E+00  0.14926269763E+00  0.50400000000E-02 0.  1.
         31    1    1    2    0    0  0.11931703675E+00 -0.94078197649E+00  0.31101376593E+02  0.31243998356E+02  0.28271010000E+01 0. -1.
        -31    1    1    2    0    0 -0.11931703675E+00  0.94078197649E+00  0.28454627679E+02  0.28610446409E+02  0.28271010000E+01 0. -1.
<mgrwt>
<rscale>  0 0.59696661E+01</rscale>
<asrwt>0</asrwt>
<pdfrwt beam="2">  1        1 0.31737363E+00 0.59696661E+01</pdfrwt>
<pdfrwt beam="1">  1       -1 0.49491843E+00 0.59696661E+01</pdfrwt>
<totfact> 0.23897175E-02</totfact>
</mgrwt>
</event>
<event>
 4    1  0.4231559E-004  0.5743277E+01  0.7818608E-02  0.2450084E+00
         -1   -1    0    0    0  501 -0.00000000000E+00  0.00000000000E+00  0.24736061587E+02  0.24736062101E+02  0.50400000000E-02 0. -1.
          1   -1    0    0  501    0  0.00000000000E+00 -0.00000000000E+00 -0.33335230889E+00  0.33339040694E+00  0.50400000000E-02 0.  1.
         31    1    1    2    0    0  0.32507867333E+00  0.98333479481E-02  0.13880801672E+02  0.14169506976E+02  0.28271010000E+01 0. -1.
        -31    1    1    2    0    0 -0.32507867333E+00 -0.98333479481E-02  0.10521907607E+02  0.10899945531E+02  0.28271010000E+01 0.  1.
<mgrwt>
<rscale>  0 0.57432768E+01</rscale>
<asrwt>0</asrwt>
<pdfrwt beam="2">  1        1 0.70136133E+00 0.57432768E+01</pdfrwt>
<pdfrwt beam="1">  1       -1 0.20729177E+00 0.57432768E+01</pdfrwt>
<totfact> 0.27409245E-02</totfact>
</mgrwt>
</event>
<event>
 4    1  0.4231559E-004  0.6210402E+01  0.7818608E-02  0.2388818E+00
          1   -1    0    0  501    0  0.00000000000E+00  0.00000000000E+00  0.37969413031E+02  0.37969413366E+02  0.50400000000E-02 0.  1.
         -1   -1    0    0    0  501 -0.00000000000E+00 -0.00000000000E+00 -0.25392313422E+00  0.25397314758E+00  0.50400000000E-02 0. -1.
         31    1    1    2    0    0 -0.48981468000E+00 -0.44342550621E+00  0.25636984437E+02  0.25800853004E+02  0.28271010000E+01 0.  1.
        -31    1    1    2    0    0  0.48981468000E+00  0.44342550621E+00  0.12078505459E+02  0.12422533510E+02  0.28271010000E+01 0. -1.
<mgrwt>
<rscale>  0 0.62104024E+01</rscale>
<asrwt>0</asrwt>
<pdfrwt beam="1">  1        1 0.31605770E+00 0.62104024E+01</pdfrwt>
<pdfrwt beam="2">  1       -1 0.53787021E+00 0.62104024E+01</pdfrwt>
<totfact> 0.12330638E-02</totfact>
</mgrwt>
</event>
<event>
 4    1  0.4231559E-004  0.5905155E+01  0.7818608E-02  0.2427934E+00
          1   -1    0    0  501    0  0.00000000000E+00  0.00000000000E+00  0.33292291746E+02  0.33292292128E+02  0.50400000000E-02 0.  1.
         -1   -1    0    0    0  501 -0.00000000000E+00 -0.00000000000E+00 -0.26182914798E+00  0.26187765146E+00  0.50400000000E-02 0. -1.
         31    1    1    2    0    0  0.26366074292E+00  0.80241434562E+00  0.15897290410E+02  0.16168788706E+02  0.28271010000E+01 0.  1.
        -31    1    1    2    0    0 -0.26366074292E+00 -0.80241434562E+00  0.17133172188E+02  0.17385381073E+02  0.28271010000E+01 0. -1.
<mgrwt>
<rscale>  0 0.59051545E+01</rscale>
<asrwt>0</asrwt>
<pdfrwt beam="1">  1        1 0.27744935E+00 0.59051545E+01</pdfrwt>
<pdfrwt beam="2">  1       -1 0.55396612E+00 0.59051545E+01</pdfrwt>
<totfact> 0.13642856E-02</totfact>
</mgrwt>
</event>
<event>
 4    1  0.4231559E-004  0.5903146E+01  0.7818608E-02  0.2428202E+00
          1   -1    0    0  501    0  0.00000000000E+00  0.00000000000E+00  0.54885174302E+02  0.54885174533E+02  0.50400000000E-02 0.  1.
         -1   -1    0    0    0  501 -0.00000000000E+00 -0.00000000000E+00 -0.15868718257E+00  0.15876719911E+00  0.50400000000E-02 0. -1.
         31    1    1    2    0    0 -0.23477821414E+00  0.76186466641E+00  0.30061293598E+02  0.30204460456E+02  0.28271010000E+01 0.  1.
        -31    1    1    2    0    0  0.23477821414E+00 -0.76186466641E+00  0.24665193521E+02  0.24839481277E+02  0.28271010000E+01 0. -1.
<mgrwt>
<rscale>  0 0.59031457E+01</rscale>
<asrwt>0</asrwt>
<pdfrwt beam="1">  1        1 0.45514182E+00 0.59031457E+01</pdfrwt>
<pdfrwt beam="2">  1       -1 0.33746182E+00 0.59031457E+01</pdfrwt>
<totfact> 0.69070629E-02</totfact>
</mgrwt>
</event>
<event>
 4    1  0.4231559E-004  0.6699732E+01  0.7818608E-02  0.2332373E+00
         -1   -1    0    0    0  501 -0.00000000000E+00  0.00000000000E+00  0.52342804371E+02  0.52342804614E+02  0.50400000000E-02 0.  1.
          1   -1    0    0  501    0  0.00000000000E+00 -0.00000000000E+00 -0.21435683108E+00  0.21441607363E+00  0.50400000000E-02 0. -1.
         31    1    1    2    0    0  0.77038661232E+00 -0.94471203072E+00  0.36421347946E+02  0.36551238866E+02  0.28271010000E+01 0.  1.
        -31    1    1    2    0    0 -0.77038661232E+00  0.94471203072E+00  0.15707099594E+02  0.16005981822E+02  0.28271010000E+01 0. -1.
<mgrwt>
<rscale>  0 0.66997316E+01</rscale>
<asrwt>0</asrwt>
<pdfrwt beam="2">  1        1 0.45524961E+00 0.66997316E+01</pdfrwt>
<pdfrwt beam="1">  1       -1 0.43457987E+00 0.66997316E+01</pdfrwt>
<totfact> 0.17272827E-02</totfact>
</mgrwt>
</event>
<event>
 4    1  0.4231559E-004  0.6175925E+01  0.7818608E-02  0.2393074E+00
         -1   -1    0    0    0  501 -0.00000000000E+00  0.00000000000E+00  0.92996278514E+02  0.92996278651E+02  0.50400000000E-02 0. -1.
          1   -1    0    0  501    0  0.00000000000E+00 -0.00000000000E+00 -0.10247443933E+00  0.10259830561E+00  0.50400000000E-02 0.  1.
         31    1    1    2    0    0 -0.11805474795E+01  0.19749773496E+00  0.41440086060E+02  0.41553651229E+02  0.28271010000E+01 0.  1.
        -31    1    1    2    0    0  0.11805474795E+01 -0.19749773496E+00  0.51453718015E+02  0.51545225728E+02  0.28271010000E+01 0.  1.
<mgrwt>
<rscale>  0 0.61759254E+01</rscale>
<asrwt>0</asrwt>
<pdfrwt beam="2">  1        1 0.21838702E+00 0.61759254E+01</pdfrwt>
<pdfrwt beam="1">  1       -1 0.76980665E+00 0.61759254E+01</pdfrwt>
<totfact> 0.47929432E-03</totfact>
</mgrwt>
</event>
<event>
 4    1  0.4231559E-004  0.5891794E+01  0.7818608E-02  0.2429723E+00
          1   -1    0    0  501    0  0.00000000000E+00  0.00000000000E+00  0.78696688719E+02  0.78696688880E+02  0.50400000000E-02 0.  1.
         -1   -1    0    0    0  501 -0.00000000000E+00 -0.00000000000E+00 -0.11021766875E+00  0.11033284236E+00  0.50400000000E-02 0. -1.
         31    1    1    2    0    0 -0.38072081140E+00 -0.60164360522E+00  0.33635971969E+02  0.33762079819E+02  0.28271010000E+01 0. -1.
        -31    1    1    2    0    0  0.38072081140E+00  0.60164360522E+00  0.44950499081E+02  0.45044941903E+02  0.28271010000E+01 0.  1.
<mgrwt>
<rscale>  0 0.58917944E+01</rscale>
<asrwt>0</asrwt>
<pdfrwt beam="1">  1        1 0.65163159E+00 0.58917944E+01</pdfrwt>
<pdfrwt beam="2">  1       -1 0.23479963E+00 0.58917944E+01</pdfrwt>
<totfact> 0.34803686E-02</totfact>
</mgrwt>
</event>
<event>
 4    1  0.4231559E-004  0.6356929E+01  0.7818608E-02  0.2371161E+00
         -1   -1    0    0    0  501 -0.00000000000E+00  0.00000000000E+00  0.37866525028E+02  0.37866525364E+02  0.50400000000E-02 0.  1.
          1   -1    0    0  501    0  0.00000000000E+00 -0.00000000000E+00 -0.26677187257E+00  0.26681947754E+00  0.50400000000E-02 0. -1.
         31    1    1    2    0    0 -0.21340177141E+00 -0.13886031304E+01  0.16584584601E+02  0.16882378547E+02  0.28271010000E+01 0.  1.
        -31    1    1    2    0    0  0.21340177141E+00  0.13886031304E+01  0.21015168555E+02  0.21250966294E+02  0.28271010000E+01 0. -1.
<mgrwt>
<rscale>  0 0.63569294E+01</rscale>
<asrwt>0</asrwt>
<pdfrwt beam="2">  1        1 0.56488110E+00 0.63569294E+01</pdfrwt>
<pdfrwt beam="1">  1       -1 0.31531318E+00 0.63569294E+01</pdfrwt>
<totfact> 0.31039265E-02</totfact>
</mgrwt>
</event>
<event>
 4    1  0.4231559E-004  0.6763389E+01  0.7818608E-02  0.2325530E+00
         -1   -1    0    0    0  501 -0.00000000000E+00  0.00000000000E+00  0.49575869474E+02  0.49575869730E+02  0.50400000000E-02 0. -1.
          1   -1    0    0  501    0  0.00000000000E+00 -0.00000000000E+00 -0.23064606482E+00  0.23070112444E+00  0.50400000000E-02 0.  1.
         31    1    1    2    0    0  0.40828456954E+00  0.10674271085E+01  0.35438526733E+02  0.35569478124E+02  0.28271010000E+01 0. -1.
        -31    1    1    2    0    0 -0.40828456954E+00 -0.10674271085E+01  0.13906696676E+02  0.14237092731E+02  0.28271010000E+01 0.  1.
<mgrwt>
<rscale>  0 0.67633887E+01</rscale>
<asrwt>0</asrwt>
<pdfrwt beam="2">  1        1 0.48956372E+00 0.67633887E+01</pdfrwt>
<pdfrwt beam="1">  1       -1 0.41183558E+00 0.67633887E+01</pdfrwt>
<totfact> 0.17377048E-02</totfact>
</mgrwt>
</event>
<event>
 4    1  0.4231559E-004  0.5911357E+01  0.7818608E-02  0.2427105E+00
          1   -1    0    0  501    0  0.00000000000E+00  0.00000000000E+00  0.39916834119E+02  0.39916834437E+02  0.50400000000E-02 0. -1.
         -1   -1    0    0    0  501 -0.00000000000E+00 -0.00000000000E+00 -0.21882658432E+00  0.21888461710E+00  0.50400000000E-02 0.  1.
         31    1    1    2    0    0 -0.58065250830E+00  0.54789750712E+00  0.17636529439E+02  0.17879513968E+02  0.28271010000E+01 0.  1.
        -31    1    1    2    0    0  0.58065250830E+00 -0.54789750712E+00  0.22061478095E+02  0.22256205086E+02  0.28271010000E+01 0. -1.
<mgrwt>
<rscale>  0 0.59113570E+01</rscale>
<asrwt>0</asrwt>
<pdfrwt beam="1">  1        1 0.33187021E+00 0.59113570E+01</pdfrwt>
<pdfrwt beam="2">  1       -1 0.46409885E+00 0.59113570E+01</pdfrwt>
<totfact> 0.34107282E-02</totfact>
</mgrwt>
</event>
<event>
 4    1  0.4231559E-004  0.5909447E+01  0.7818608E-02  0.2427360E+00
          1   -1    0    0  501    0  0.00000000000E+00  0.00000000000E+00  0.49920843423E+02  0.49920843677E+02  0.50400000000E-02 0. -1.
         -1   -1    0    0    0  501 -0.00000000000E+00 -0.00000000000E+00 -0.17484809545E+00  0.17492071942E+00  0.50400000000E-02 0.  1.
         31    1    1    2    0    0  0.13834205899E+00  0.83879736632E+00  0.25917117418E+02  0.26084711900E+02  0.28271010000E+01 0. -1.
        -31    1    1    2    0    0 -0.13834205899E+00 -0.83879736632E+00  0.23828877909E+02  0.24011052497E+02  0.28271010000E+01 0.  1.
<mgrwt>
<rscale>  0 0.59094466E+01</rscale>
<asrwt>0</asrwt>
<pdfrwt beam="1">  1        1 0.41422683E+00 0.59094466E+01</pdfrwt>
<pdfrwt beam="2">  1       -1 0.37158638E+00 0.59094466E+01</pdfrwt>
<totfact> 0.63368593E-02</totfact>
</mgrwt>
</event>
<event>
 4    1  0.4231559E-004  0.5865441E+01  0.7818608E-02  0.2433273E+00
          1   -1    0    0  501    0  0.00000000000E+00  0.00000000000E+00  0.28854803822E+02  0.28854804262E+02  0.50400000000E-02 0.  1.
         -1   -1    0    0    0  501 -0.00000000000E+00 -0.00000000000E+00 -0.29805165613E+00  0.29809426584E+00  0.50400000000E-02 0. -1.
         31    1    1    2    0    0  0.56281527124E+00  0.46308248015E+00  0.12897897665E+02  0.13224200190E+02  0.28271010000E+01 0. -1.
        -31    1    1    2    0    0 -0.56281527124E+00 -0.46308248015E+00  0.15658854501E+02  0.15928698339E+02  0.28271010000E+01 0.  1.
<mgrwt>
<rscale>  0 0.58654410E+01</rscale>
<asrwt>0</asrwt>
<pdfrwt beam="1">  1        1 0.24105656E+00 0.58654410E+01</pdfrwt>
<pdfrwt beam="2">  1       -1 0.62905232E+00 0.58654410E+01</pdfrwt>
<totfact> 0.80052245E-03</totfact>
</mgrwt>
</event>
<event>
 4    1  0.4231559E-004  0.5967010E+01  0.7818608E-02  0.2419737E+00
         -1   -1    0    0    0  501 -0.00000000000E+00  0.00000000000E+00  0.36860073362E+02  0.36860073707E+02  0.50400000000E-02 0.  1.
          1   -1    0    0  501    0  0.00000000000E+00 -0.00000000000E+00 -0.24146235421E+00  0.24151494798E+00  0.50400000000E-02 0. -1.
         31    1    1    2    0    0  0.51148976891E+00  0.47298755200E-01  0.23302706522E+02  0.23479192709E+02  0.28271010000E+01 0.  1.
        -31    1    1    2    0    0 -0.51148976891E+00 -0.47298755200E-01  0.13315904486E+02  0.13622395946E+02  0.28271010000E+01 0. -1.
<mgrwt>
<rscale>  0 0.59670100E+01</rscale>
<asrwt>0</asrwt>
<pdfrwt beam="2">  1        1 0.51155012E+00 0.59670100E+01</pdfrwt>
<pdfrwt beam="1">  1       -1 0.30678189E+00 0.59670100E+01</pdfrwt>
<totfact> 0.60339481E-02</totfact>
</mgrwt>
</event>
<event>
 4    1  0.4231559E-004  0.5893019E+01  0.7818608E-02  0.2429559E+00
         -1   -1    0    0    0  501 -0.00000000000E+00  0.00000000000E+00  0.45601783236E+02  0.45601783515E+02  0.50400000000E-02 0. -1.
          1   -1    0    0  501    0  0.00000000000E+00 -0.00000000000E+00 -0.19035184066E+00  0.19041855173E+00  0.50400000000E-02 0.  1.
         31    1    1    2    0    0 -0.33891716646E+00 -0.30745639749E+00  0.28089462910E+02  0.28235081386E+02  0.28271010000E+01 0. -1.
        -31    1    1    2    0    0  0.33891716646E+00  0.30745639749E+00  0.17321968486E+02  0.17557120680E+02  0.28271010000E+01 0.  1.
<mgrwt>
<rscale>  0 0.58930186E+01</rscale>
<asrwt>0</asrwt>
<pdfrwt beam="2">  1        1 0.40425115E+00 0.58930186E+01</pdfrwt>
<pdfrwt beam="1">  1       -1 0.37864197E+00 0.58930186E+01</pdfrwt>
<totfact> 0.62917038E-02</totfact>
</mgrwt>
</event>
<event>
 4    1  0.4231559E-004  0.5875778E+01  0.7818608E-02  0.2431877E+00
          1   -1    0    0  501    0  0.00000000000E+00  0.00000000000E+00  0.60376377647E+02  0.60376377857E+02  0.50400000000E-02 0.  1.
         -1   -1    0    0    0  501 -0.00000000000E+00 -0.00000000000E+00 -0.14291180151E+00  0.14300064549E+00  0.50400000000E-02 0. -1.
         31    1    1    2    0    0 -0.53650944746E+00 -0.19205339954E+00  0.24345488208E+02  0.24515709719E+02  0.28271010000E+01 0. -1.
        -31    1    1    2    0    0  0.53650944746E+00  0.19205339954E+00  0.35887977637E+02  0.36003668783E+02  0.28271010000E+01 0.  1.
<mgrwt>
<rscale>  0 0.58757780E+01</rscale>
<asrwt>0</asrwt>
<pdfrwt beam="1">  1        1 0.50041656E+00 0.58757780E+01</pdfrwt>
<pdfrwt beam="2">  1       -1 0.30409092E+00 0.58757780E+01</pdfrwt>
<totfact> 0.69849896E-02</totfact>
</mgrwt>
</event>
<event>
 4    1  0.4231559E-004  0.6451313E+01  0.7818608E-02  0.2360142E+00
          1   -1    0    0  501    0  0.00000000000E+00  0.00000000000E+00  0.66740207735E+02  0.66740207926E+02  0.50400000000E-02 0. -1.
         -1   -1    0    0    0  501 -0.00000000000E+00 -0.00000000000E+00 -0.15586001686E+00  0.15594148408E+00  0.50400000000E-02 0.  1.
         31    1    1    2    0    0  0.11030257840E+01  0.28359195168E+00  0.44242905960E+02  0.44347765650E+02  0.28271010000E+01 0. -1.
        -31    1    1    2    0    0 -0.11030257840E+01 -0.28359195168E+00  0.22341441758E+02  0.22548383760E+02  0.28271010000E+01 0. -1.
<mgrwt>
<rscale>  0 0.64513134E+01</rscale>
<asrwt>0</asrwt>
<pdfrwt beam="1">  1        1 0.55314417E+00 0.64513134E+01</pdfrwt>
<pdfrwt beam="2">  1       -1 0.33163650E+00 0.64513134E+01</pdfrwt>
<totfact> 0.28167895E-02</totfact>
</mgrwt>
</event>
<event>
 4    1  0.4231559E-004  0.6175520E+01  0.7818608E-02  0.2393124E+00
         -1   -1    0    0    0  501 -0.00000000000E+00  0.00000000000E+00  0.10733169701E+03  0.10733169713E+03  0.50400000000E-02 0. -1.
          1   -1    0    0  501    0  0.00000000000E+00 -0.00000000000E+00 -0.88758275335E-01  0.88901254437E-01  0.50400000000E-02 0.  1.
         31    1    1    2    0    0  0.24863299022E+00  0.11652804912E+01  0.47544182711E+02  0.47643063574E+02  0.28271010000E+01 0. -1.
        -31    1    1    2    0    0 -0.24863299022E+00 -0.11652804912E+01  0.59698756027E+02  0.59777534812E+02  0.28271010000E+01 0.  1.
<mgrwt>
<rscale>  0 0.61755201E+01</rscale>
<asrwt>0</asrwt>
<pdfrwt beam="2">  1        1 0.18924599E+00 0.61755201E+01</pdfrwt>
<pdfrwt beam="1">  1       -1 0.88822867E+00 0.61755201E+01</pdfrwt>
<totfact> 0.14336205E-03</totfact>
</mgrwt>
</event>
<event>
 4    1  0.4231559E-004  0.5854151E+01  0.7818608E-02  0.2434801E+00
          1   -1    0    0  501    0  0.00000000000E+00  0.00000000000E+00  0.68598791845E+02  0.68598792030E+02  0.50400000000E-02 0. -1.
         -1   -1    0    0    0  501 -0.00000000000E+00 -0.00000000000E+00 -0.12484579855E+00  0.12494748903E+00  0.50400000000E-02 0.  1.
         31    1    1    2    0    0  0.64630854846E+00 -0.39109844685E+00  0.35033066928E+02  0.35155070064E+02  0.28271010000E+01 0. -1.
        -31    1    1    2    0    0 -0.64630854846E+00  0.39109844685E+00  0.33440879118E+02  0.33568669456E+02  0.28271010000E+01 0.  1.
<mgrwt>
<rscale>  0 0.58541512E+01</rscale>
<asrwt>0</asrwt>
<pdfrwt beam="1">  1        1 0.56825596E+00 0.58541512E+01</pdfrwt>
<pdfrwt beam="2">  1       -1 0.26582037E+00 0.58541512E+01</pdfrwt>
<totfact> 0.58379478E-02</totfact>
</mgrwt>
</event>
<event>
 4    1  0.4231559E-004  0.6035065E+01  0.7818608E-02  0.2410882E+00
          1   -1    0    0  501    0  0.00000000000E+00  0.00000000000E+00  0.40901841115E+02  0.40901841425E+02  0.50400000000E-02 0. -1.
         -1   -1    0    0    0  501 -0.00000000000E+00 -0.00000000000E+00 -0.22258957732E+00  0.22264662928E+00  0.50400000000E-02 0.  1.
         31    1    1    2    0    0 -0.48927999501E+00 -0.39231989812E+00  0.26120482693E+02  0.26280514188E+02  0.28271010000E+01 0. -1.
        -31    1    1    2    0    0  0.48927999501E+00  0.39231989812E+00  0.14558768845E+02  0.14843973867E+02  0.28271010000E+01 0.  1.
<mgrwt>
<rscale>  0 0.60350652E+01</rscale>
<asrwt>0</asrwt>
<pdfrwt beam="1">  1        1 0.34004604E+00 0.60350652E+01</pdfrwt>
<pdfrwt beam="2">  1       -1 0.47209630E+00 0.60350652E+01</pdfrwt>
<totfact> 0.27997457E-02</totfact>
</mgrwt>
</event>
<event>
 4    1  0.4231559E-004  0.5718871E+01  0.7818608E-02  0.2453515E+00
          1   -1    0    0  501    0  0.00000000000E+00  0.00000000000E+00  0.46964744717E+02  0.46964744988E+02  0.50400000000E-02 0. -1.
         -1   -1    0    0    0  501 -0.00000000000E+00 -0.00000000000E+00 -0.17405921924E+00  0.17413217222E+00  0.50400000000E-02 0.  1.
         31    1    1    2    0    0  0.68537291738E-01  0.40809923224E+00  0.22468994237E+02  0.22649932548E+02  0.28271010000E+01 0.  1.
        -31    1    1    2    0    0 -0.68537291738E-01 -0.40809923224E+00  0.24321691261E+02  0.24488944612E+02  0.28271010000E+01 0.  1.
<mgrwt>
<rscale>  0 0.57188714E+01</rscale>
<asrwt>0</asrwt>
<pdfrwt beam="1">  1        1 0.38977722E+00 0.57188714E+01</pdfrwt>
<pdfrwt beam="2">  1       -1 0.36983550E+00 0.57188714E+01</pdfrwt>
<totfact> 0.81109034E-02</totfact>
</mgrwt>
</event>
<event>
 4    1  0.4231559E-004  0.6244441E+01  0.7818608E-02  0.2384655E+00
          1   -1    0    0  501    0  0.00000000000E+00  0.00000000000E+00  0.63197590713E+02  0.63197590914E+02  0.50400000000E-02 0.  1.
         -1   -1    0    0    0  501 -0.00000000000E+00 -0.00000000000E+00 -0.15420913730E+00  0.15429147620E+00  0.50400000000E-02 0. -1.
         31    1    1    2    0    0 -0.95404007408E+00 -0.89847535854E+00  0.33507428512E+02  0.33652009092E+02  0.28271010000E+01 0.  1.
        -31    1    1    2    0    0  0.95404007408E+00  0.89847535854E+00  0.29535953064E+02  0.29699873298E+02  0.28271010000E+01 0. -1.
<mgrwt>
<rscale>  0 0.62444409E+01</rscale>
<asrwt>0</asrwt>
<pdfrwt beam="1">  1        1 0.52383769E+00 0.62444409E+01</pdfrwt>
<pdfrwt beam="2">  1       -1 0.32809133E+00 0.62444409E+01</pdfrwt>
<totfact> 0.40020965E-02</totfact>
</mgrwt>
</event>
<event>
 4    1  0.4231559E-004  0.6015823E+01  0.7818608E-02  0.2413369E+00
         -1   -1    0    0    0  501 -0.00000000000E+00  0.00000000000E+00  0.40102634933E+02  0.40102635250E+02  0.50400000000E-02 0.  1.
          1   -1    0    0  501    0  0.00000000000E+00 -0.00000000000E+00 -0.22558092302E+00  0.22563721863E+00  0.50400000000E-02 0. -1.
         31    1    1    2    0    0  0.46915495120E+00  0.83498938880E+00  0.22426288395E+02  0.22624062962E+02  0.28271010000E+01 0. -1.
        -31    1    1    2    0    0 -0.46915495120E+00 -0.83498938880E+00  0.17450765615E+02  0.17704209507E+02  0.28271010000E+01 0.  1.
<mgrwt>
<rscale>  0 0.60158228E+01</rscale>
<asrwt>0</asrwt>
<pdfrwt beam="2">  1        1 0.47835202E+00 0.60158228E+01</pdfrwt>
<pdfrwt beam="1">  1       -1 0.33346237E+00 0.60158228E+01</pdfrwt>
<totfact> 0.58393281E-02</totfact>
</mgrwt>
</event>
<event>
 4    1  0.4231559E-004  0.6990593E+01  0.7818608E-02  0.2301943E+00
         -1   -1    0    0    0  501 -0.00000000000E+00  0.00000000000E+00  0.35272754622E+02  0.35272754982E+02  0.50400000000E-02 0.  1.
          1   -1    0    0  501    0  0.00000000000E+00 -0.00000000000E+00 -0.34634203638E+00  0.34637870570E+00  0.50400000000E-02 0. -1.
         31    1    1    2    0    0 -0.12125894987E+01 -0.22263226980E+00  0.25842850412E+02  0.26026243599E+02  0.28271010000E+01 0.  1.
        -31    1    1    2    0    0  0.12125894987E+01  0.22263226980E+00  0.90835621744E+01  0.95928900890E+01  0.28271010000E+01 0. -1.
<mgrwt>
<rscale>  0 0.69905929E+01</rscale>
<asrwt>0</asrwt>
<pdfrwt beam="2">  1        1 0.73132738E+00 0.69905929E+01</pdfrwt>
<pdfrwt beam="1">  1       -1 0.29452392E+00 0.69905929E+01</pdfrwt>
<totfact> 0.52880230E-03</totfact>
</mgrwt>
</event>
<event>
 4    1  0.4231559E-004  0.5706249E+01  0.7818608E-02  0.2455299E+00
         -1   -1    0    0    0  501 -0.00000000000E+00  0.00000000000E+00  0.34429217659E+02  0.34429218028E+02  0.50400000000E-02 0.  1.
          1   -1    0    0  501    0  0.00000000000E+00 -0.00000000000E+00 -0.23640913196E+00  0.23646284967E+00  0.50400000000E-02 0. -1.
         31    1    1    2    0    0  0.30625133489E+00  0.23238127165E+00  0.17128512909E+02  0.17364511092E+02  0.28271010000E+01 0. -1.
        -31    1    1    2    0    0 -0.30625133489E+00 -0.23238127165E+00  0.17064295618E+02  0.17301169786E+02  0.28271010000E+01 0. -1.
<mgrwt>
<rscale>  0 0.57062488E+01</rscale>
<asrwt>0</asrwt>
<pdfrwt beam="2">  1        1 0.50068991E+00 0.57062488E+01</pdfrwt>
<pdfrwt beam="1">  1       -1 0.28664010E+00 0.57062488E+01</pdfrwt>
<totfact> 0.87947319E-02</totfact>
</mgrwt>
</event>
<event>
 4    1  0.4231559E-004  0.5764643E+01  0.7818608E-02  0.2447101E+00
         -1   -1    0    0    0  501 -0.00000000000E+00  0.00000000000E+00  0.31034564259E+02  0.31034564668E+02  0.50400000000E-02 0.  1.
          1   -1    0    0  501    0  0.00000000000E+00 -0.00000000000E+00 -0.26767017061E+00  0.26771761584E+00  0.50400000000E-02 0. -1.
         31    1    1    2    0    0  0.30428217156E+00  0.38097045865E+00  0.13871299336E+02  0.14164856917E+02  0.28271010000E+01 0. -1.
        -31    1    1    2    0    0 -0.30428217156E+00 -0.38097045865E+00  0.16895594752E+02  0.17137425367E+02  0.28271010000E+01 0. -1.
<mgrwt>
<rscale>  0 0.57646426E+01</rscale>
<asrwt>0</asrwt>
<pdfrwt beam="2">  1        1 0.56589510E+00 0.57646426E+01</pdfrwt>
<pdfrwt beam="1">  1       -1 0.25882917E+00 0.57646426E+01</pdfrwt>
<totfact> 0.65819286E-02</totfact>
</mgrwt>
</event>
<event>
 4    1  0.4231559E-004  0.7016641E+01  0.7818608E-02  0.2299319E+00
          1   -1    0    0  501    0  0.00000000000E+00  0.00000000000E+00  0.73127472292E+02  0.73127472466E+02  0.50400000000E-02 0. -1.
         -1   -1    0    0    0  501 -0.00000000000E+00 -0.00000000000E+00 -0.16827519093E+00  0.16835065038E+00  0.50400000000E-02 0.  1.
         31    1    1    2    0    0 -0.12293542993E+01  0.14205768127E+01  0.27215813113E+02  0.27426671945E+02  0.28271010000E+01 0.  1.
        -31    1    1    2    0    0  0.12293542993E+01 -0.14205768127E+01  0.45743383988E+02  0.45869151172E+02  0.28271010000E+01 0.  1.
<mgrwt>
<rscale>  0 0.70166406E+01</rscale>
<asrwt>0</asrwt>
<pdfrwt beam="1">  1        1 0.60606115E+00 0.70166406E+01</pdfrwt>
<pdfrwt beam="2">  1       -1 0.35805224E+00 0.70166406E+01</pdfrwt>
<totfact> 0.10985080E-02</totfact>
</mgrwt>
</event>
<event>
 4    1  0.4231559E-004  0.6559592E+01  0.7818608E-02  0.2347825E+00
         -1   -1    0    0    0  501 -0.00000000000E+00  0.00000000000E+00  0.53297039711E+02  0.53297039950E+02  0.50400000000E-02 0.  1.
          1   -1    0    0  501    0  0.00000000000E+00 -0.00000000000E+00 -0.20180054728E+00  0.20186347486E+00  0.50400000000E-02 0. -1.
         31    1    1    2    0    0  0.40802757067E+00 -0.67711050317E+00  0.38477441835E+02  0.38589260104E+02  0.28271010000E+01 0.  1.
        -31    1    1    2    0    0 -0.40802757067E+00  0.67711050317E+00  0.14617797330E+02  0.14909643321E+02  0.28271010000E+01 0. -1.
<mgrwt>
<rscale>  0 0.65595919E+01</rscale>
<asrwt>0</asrwt>
<pdfrwt beam="2">  1        1 0.42872215E+00 0.65595919E+01</pdfrwt>
<pdfrwt beam="1">  1       -1 0.44236636E+00 0.65595919E+01</pdfrwt>
<totfact> 0.19730606E-02</totfact>
</mgrwt>
</event>
<event>
 4    1  0.4231559E-004  0.5862968E+01  0.7818608E-02  0.2433607E+00
          1   -1    0    0  501    0  0.00000000000E+00  0.00000000000E+00  0.72874707744E+02  0.72874707919E+02  0.50400000000E-02 0. -1.
         -1   -1    0    0    0  501 -0.00000000000E+00 -0.00000000000E+00 -0.11786889121E+00  0.11797659563E+00  0.50400000000E-02 0.  1.
         31    1    1    2    0    0 -0.73172659632E+00 -0.73781939748E-01  0.33323004902E+02  0.33450800041E+02  0.28271010000E+01 0.  1.
        -31    1    1    2    0    0  0.73172659632E+00  0.73781939748E-01  0.39433833951E+02  0.39541884473E+02  0.28271010000E+01 0.  1.
<mgrwt>
<rscale>  0 0.58629679E+01</rscale>
<asrwt>0</asrwt>
<pdfrwt beam="1">  1        1 0.60355459E+00 0.58629679E+01</pdfrwt>
<pdfrwt beam="2">  1       -1 0.25102840E+00 0.58629679E+01</pdfrwt>
<totfact> 0.48611852E-02</totfact>
</mgrwt>
</event>
<event>
 4    1  0.4231559E-004  0.7589490E+01  0.7818608E-02  0.2245372E+00
         -1   -1    0    0    0  501 -0.00000000000E+00  0.00000000000E+00  0.40634346921E+02  0.40634347233E+02  0.50400000000E-02 0.  1.
          1   -1    0    0  501    0  0.00000000000E+00 -0.00000000000E+00 -0.35436398458E+00  0.35439982389E+00  0.50400000000E-02 0. -1.
         31    1    1    2    0    0  0.20314252189E+01  0.11107282418E+01  0.14613320594E+02  0.15063268055E+02  0.28271010000E+01 0.  1.
        -31    1    1    2    0    0 -0.20314252189E+01 -0.11107282418E+01  0.25666662342E+02  0.25925479002E+02  0.28271010000E+01 0. -1.
<mgrwt>
<rscale>  0 0.75894901E+01</rscale>
<asrwt>0</asrwt>
<pdfrwt beam="2">  1        1 0.74907917E+00 0.75894901E+01</pdfrwt>
<pdfrwt beam="1">  1       -1 0.33892364E+00 0.75894901E+01</pdfrwt>
<totfact> 0.21935489E-03</totfact>
</mgrwt>
</event>
<event>
 4    1  0.4231559E-004  0.5682645E+01  0.7818608E-02  0.2458653E+00
         -1   -1    0    0    0  501 -0.00000000000E+00  0.00000000000E+00  0.38397243468E+02  0.38397243799E+02  0.50400000000E-02 0.  1.
          1   -1    0    0  501    0  0.00000000000E+00 -0.00000000000E+00 -0.21022189204E+00  0.21028229952E+00  0.50400000000E-02 0. -1.
         31    1    1    2    0    0  0.26816268786E+00 -0.92716465036E-01  0.19023558764E+02  0.19234572927E+02  0.28271010000E+01 0.  1.
        -31    1    1    2    0    0 -0.26816268786E+00  0.92716465036E-01  0.19163462812E+02  0.19372953171E+02  0.28271010000E+01 0. -1.
<mgrwt>
<rscale>  0 0.56826450E+01</rscale>
<asrwt>0</asrwt>
<pdfrwt beam="2">  1        1 0.44585768E+00 0.56826450E+01</pdfrwt>
<pdfrwt beam="1">  1       -1 0.31923404E+00 0.56826450E+01</pdfrwt>
<totfact> 0.96275340E-02</totfact>
</mgrwt>
</event>
<event>
 4    1  0.4231559E-004  0.5711857E+01  0.7818608E-02  0.2454506E+00
         -1   -1    0    0    0  501 -0.00000000000E+00  0.00000000000E+00  0.31593309904E+02  0.31593310306E+02  0.50400000000E-02 0. -1.
          1   -1    0    0  501    0  0.00000000000E+00 -0.00000000000E+00 -0.25814126572E+00  0.25819046200E+00  0.50400000000E-02 0.  1.
         31    1    1    2    0    0 -0.15319860534E+00  0.34829908468E+00  0.14898027972E+02  0.15168669011E+02  0.28271010000E+01 0.  1.
        -31    1    1    2    0    0  0.15319860534E+00 -0.34829908468E+00  0.16437140667E+02  0.16682831757E+02  0.28271010000E+01 0. -1.
<mgrwt>
<rscale>  0 0.57118568E+01</rscale>
<asrwt>0</asrwt>
<pdfrwt beam="2">  1        1 0.54599904E+00 0.57118568E+01</pdfrwt>
<pdfrwt beam="1">  1       -1 0.26337049E+00 0.57118568E+01</pdfrwt>
<totfact> 0.76198282E-02</totfact>
</mgrwt>
</event>
<event>
 4    1  0.4231559E-004  0.5896572E+01  0.7818608E-02  0.2429082E+00
          1   -1    0    0  501    0  0.00000000000E+00  0.00000000000E+00  0.76138642579E+02  0.76138642746E+02  0.50400000000E-02 0.  1.
         -1   -1    0    0    0  501 -0.00000000000E+00 -0.00000000000E+00 -0.11410948533E+00  0.11422073473E+00  0.50400000000E-02 0. -1.
         31    1    1    2    0    0  0.20685889137E+00  0.64228557516E+00  0.44407497181E+02  0.44502512596E+02  0.28271010000E+01 0.  1.
        -31    1    1    2    0    0 -0.20685889137E+00 -0.64228557516E+00  0.31617035912E+02  0.31750350885E+02  0.28271010000E+01 0. -1.
<mgrwt>
<rscale>  0 0.58965716E+01</rscale>
<asrwt>0</asrwt>
<pdfrwt beam="1">  1        1 0.63051203E+00 0.58965716E+01</pdfrwt>
<pdfrwt beam="2">  1       -1 0.24305814E+00 0.58965716E+01</pdfrwt>
<totfact> 0.39878815E-02</totfact>
</mgrwt>
</event>
<event>
 4    1  0.4231559E-004  0.5901843E+01  0.7818608E-02  0.2428377E+00
          1   -1    0    0  501    0  0.00000000000E+00  0.00000000000E+00  0.82439523397E+02  0.82439523551E+02  0.50400000000E-02 0.  1.
         -1   -1    0    0    0  501 -0.00000000000E+00 -0.00000000000E+00 -0.10556791559E+00  0.10568815639E+00  0.50400000000E-02 0. -1.
         31    1    1    2    0    0 -0.56861185930E+00 -0.43036950761E+00  0.34805108759E+02  0.34927018670E+02  0.28271010000E+01 0.  1.
        -31    1    1    2    0    0  0.56861185930E+00  0.43036950761E+00  0.47528846722E+02  0.47618193037E+02  0.28271010000E+01 0.  1.
<mgrwt>
<rscale>  0 0.59018430E+01</rscale>
<asrwt>0</asrwt>
<pdfrwt beam="1">  1        1 0.68254156E+00 0.59018430E+01</pdfrwt>
<pdfrwt beam="2">  1       -1 0.22493166E+00 0.59018430E+01</pdfrwt>
<totfact> 0.27187190E-02</totfact>
</mgrwt>
</event>
<event>
 4    1  0.4231559E-004  0.7717046E+01  0.7818608E-02  0.2234252E+00
         -1   -1    0    0    0  501 -0.00000000000E+00  0.00000000000E+00  0.71104883080E+02  0.71104883259E+02  0.50400000000E-02 0. -1.
          1   -1    0    0  501    0  0.00000000000E+00 -0.00000000000E+00 -0.20935313287E+00  0.20941379095E+00  0.50400000000E-02 0.  1.
         31    1    1    2    0    0 -0.12002809612E+01  0.14043136030E+01  0.18201391723E+02  0.18512048288E+02  0.28271010000E+01 0.  1.
        -31    1    1    2    0    0  0.12002809612E+01 -0.14043136030E+01  0.52694138224E+02  0.52802248762E+02  0.28271010000E+01 0. -1.
<mgrwt>
<rscale>  0 0.77170459E+01</rscale>
<asrwt>0</asrwt>
<pdfrwt beam="2">  1        1 0.44513601E+00 0.77170459E+01</pdfrwt>
<pdfrwt beam="1">  1       -1 0.58967650E+00 0.77170459E+01</pdfrwt>
<totfact> 0.18548859E-03</totfact>
</mgrwt>
</event>
<event>
 4    1  0.4231559E-004  0.9075352E+01  0.7818608E-02  0.2131775E+00
          1   -1    0    0  501    0  0.00000000000E+00  0.00000000000E+00  0.70653414275E+02  0.70653414455E+02  0.50400000000E-02 0.  1.
         -1   -1    0    0    0  501 -0.00000000000E+00 -0.00000000000E+00 -0.29140774601E+00  0.29145132704E+00  0.50400000000E-02 0. -1.
         31    1    1    2    0    0  0.14810184649E+01 -0.15401755759E+01  0.13025509074E+02  0.13498960819E+02  0.28271010000E+01 0. -1.
        -31    1    1    2    0    0 -0.14810184649E+01  0.15401755759E+01  0.57336497456E+02  0.57445904963E+02  0.28271010000E+01 0.  1.
<mgrwt>
<rscale>  0 0.90753522E+01</rscale>
<asrwt>0</asrwt>
<pdfrwt beam="1">  1        1 0.58662179E+00 0.90753522E+01</pdfrwt>
<pdfrwt beam="2">  1       -1 0.61883258E+00 0.90753522E+01</pdfrwt>
<totfact> 0.32173505E-04</totfact>
</mgrwt>
</event>
<event>
 4    1  0.4231559E-004  0.6350099E+01  0.7818608E-02  0.2371969E+00
         -1   -1    0    0    0  501 -0.00000000000E+00  0.00000000000E+00  0.56383284424E+02  0.56383284649E+02  0.50400000000E-02 0.  1.
          1   -1    0    0  501    0  0.00000000000E+00 -0.00000000000E+00 -0.17875730612E+00  0.17882834253E+00  0.50400000000E-02 0. -1.
         31    1    1    2    0    0 -0.98797373397E+00 -0.10473109652E+01  0.26993782411E+02  0.27179583169E+02  0.28271010000E+01 0. -1.
        -31    1    1    2    0    0  0.98797373397E+00  0.10473109652E+01  0.29210744707E+02  0.29382529822E+02  0.28271010000E+01 0.  1.
<mgrwt>
<rscale>  0 0.63500990E+01</rscale>
<asrwt>0</asrwt>
<pdfrwt beam="2">  1        1 0.38001657E+00 0.63500990E+01</pdfrwt>
<pdfrwt beam="1">  1       -1 0.46769512E+00 0.63500990E+01</pdfrwt>
<totfact> 0.20925914E-02</totfact>
</mgrwt>
</event>
<event>
 4    1  0.4231559E-004  0.6228031E+01  0.7818608E-02  0.2386657E+00
         -1   -1    0    0    0  501 -0.00000000000E+00  0.00000000000E+00  0.31470554004E+02  0.31470554407E+02  0.50400000000E-02 0. -1.
          1   -1    0    0  501    0  0.00000000000E+00 -0.00000000000E+00 -0.30811122585E+00  0.30815244457E+00  0.50400000000E-02 0.  1.
         31    1    1    2    0    0  0.29412765735E-01  0.16978623207E+00  0.89776348564E+01  0.94138260104E+01  0.28271010000E+01 0.  1.
        -31    1    1    2    0    0 -0.29412765735E-01 -0.16978623207E+00  0.22184807921E+02  0.22364880841E+02  0.28271010000E+01 0. -1.
<mgrwt>
<rscale>  0 0.62280309E+01</rscale>
<asrwt>0</asrwt>
<pdfrwt beam="2">  1        1 0.65062758E+00 0.62280309E+01</pdfrwt>
<pdfrwt beam="1">  1       -1 0.26276858E+00 0.62280309E+01</pdfrwt>
<totfact> 0.23901523E-02</totfact>
</mgrwt>
</event>
<event>
 4    1  0.4231559E-004  0.5881652E+01  0.7818608E-02  0.2431086E+00
          1   -1    0    0  501    0  0.00000000000E+00  0.00000000000E+00  0.38365801198E+02  0.38365801529E+02  0.50400000000E-02 0. -1.
         -1   -1    0    0    0  501 -0.00000000000E+00 -0.00000000000E+00 -0.22539249859E+00  0.22544884125E+00  0.50400000000E-02 0.  1.
         31    1    1    2    0    0  0.74880922327E+00 -0.27074775179E-01  0.21087298090E+02  0.21289154259E+02  0.28271010000E+01 0. -1.
        -31    1    1    2    0    0 -0.74880922327E+00  0.27074775179E-01  0.17053110610E+02  0.17302096111E+02  0.28271010000E+01 0.  1.
<mgrwt>
<rscale>  0 0.58816519E+01</rscale>
<asrwt>0</asrwt>
<pdfrwt beam="1">  1        1 0.31909946E+00 0.58816519E+01</pdfrwt>
<pdfrwt beam="2">  1       -1 0.47783390E+00 0.58816519E+01</pdfrwt>
<totfact> 0.30816340E-02</totfact>
</mgrwt>
</event>
<event>
 4    1  0.4231559E-004  0.5906933E+01  0.7818608E-02  0.2427696E+00
         -1   -1    0    0    0  501 -0.00000000000E+00  0.00000000000E+00  0.52927601691E+02  0.52927601931E+02  0.50400000000E-02 0. -1.
          1   -1    0    0  501    0  0.00000000000E+00 -0.00000000000E+00 -0.16477058890E+00  0.16484765260E+00  0.50400000000E-02 0.  1.
         31    1    1    2    0    0 -0.45962620888E+00 -0.34830668553E+00  0.20711815440E+02  0.20911823753E+02  0.28271010000E+01 0.  1.
        -31    1    1    2    0    0  0.45962620888E+00  0.34830668553E+00  0.32051015662E+02  0.32180625831E+02  0.28271010000E+01 0. -1.
<mgrwt>
<rscale>  0 0.59069329E+01</rscale>
<asrwt>0</asrwt>
<pdfrwt beam="2">  1        1 0.35031480E+00 0.59069329E+01</pdfrwt>
<pdfrwt beam="1">  1       -1 0.43900552E+00 0.59069329E+01</pdfrwt>
<totfact> 0.42521615E-02</totfact>
</mgrwt>
</event>
<event>
 4    1  0.4231559E-004  0.6219534E+01  0.7818608E-02  0.2387698E+00
         -1   -1    0    0    0  501 -0.00000000000E+00  0.00000000000E+00  0.36868643974E+02  0.36868644318E+02  0.50400000000E-02 0. -1.
          1   -1    0    0  501    0  0.00000000000E+00 -0.00000000000E+00 -0.26227561137E+00  0.26232403229E+00  0.50400000000E-02 0.  1.
         31    1    1    2    0    0 -0.40086183349E+00  0.95718221640E+00  0.13673932364E+02  0.14001636131E+02  0.28271010000E+01 0.  1.
        -31    1    1    2    0    0  0.40086183349E+00 -0.95718221640E+00  0.22932435999E+02  0.23129332220E+02  0.28271010000E+01 0.  1.
<mgrwt>
<rscale>  0 0.62195342E+01</rscale>
<asrwt>0</asrwt>
<pdfrwt beam="2">  1        1 0.55532422E+00 0.62195342E+01</pdfrwt>
<pdfrwt beam="1">  1       -1 0.30702483E+00 0.62195342E+01</pdfrwt>
<totfact> 0.38415271E-02</totfact>
</mgrwt>
</event>
<event>
 4    1  0.4231559E-004  0.5737965E+01  0.7818608E-02  0.2450829E+00
          1   -1    0    0  501    0  0.00000000000E+00  0.00000000000E+00  0.59618534976E+02  0.59618535189E+02  0.50400000000E-02 0.  1.
         -1   -1    0    0    0  501 -0.00000000000E+00 -0.00000000000E+00 -0.13801589667E+00  0.13810789019E+00  0.50400000000E-02 0. -1.
         31    1    1    2    0    0 -0.22082554745E+00  0.15749854836E+00  0.25510086743E+02  0.25667695561E+02  0.28271010000E+01 0.  1.
        -31    1    1    2    0    0  0.22082554745E+00 -0.15749854836E+00  0.33970432336E+02  0.34088947518E+02  0.28271010000E+01 0.  1.
<mgrwt>
<rscale>  0 0.57379650E+01</rscale>
<asrwt>0</asrwt>
<pdfrwt beam="1">  1        1 0.49410973E+00 0.57379650E+01</pdfrwt>
<pdfrwt beam="2">  1       -1 0.29369514E+00 0.57379650E+01</pdfrwt>
<totfact> 0.85370195E-02</totfact>
</mgrwt>
</event>
<event>
 4    1  0.4231559E-004  0.5885047E+01  0.7818608E-02  0.2430629E+00
         -1   -1    0    0    0  501 -0.00000000000E+00  0.00000000000E+00  0.37539495594E+02  0.37539495933E+02  0.50400000000E-02 0.  1.
          1   -1    0    0  501    0  0.00000000000E+00 -0.00000000000E+00 -0.23062106627E+00  0.23067613185E+00  0.50400000000E-02 0. -1.
         31    1    1    2    0    0 -0.69149690690E+00 -0.22640498126E+00  0.21025774243E+02  0.21227461218E+02  0.28271010000E+01 0.  1.
        -31    1    1    2    0    0  0.69149690690E+00  0.22640498126E+00  0.16283100286E+02  0.16542710847E+02  0.28271010000E+01 0. -1.
<mgrwt>
<rscale>  0 0.58850471E+01</rscale>
<asrwt>0</asrwt>
<pdfrwt beam="2">  1        1 0.48878524E+00 0.58850471E+01</pdfrwt>
<pdfrwt beam="1">  1       -1 0.31231021E+00 0.58850471E+01</pdfrwt>
<totfact> 0.70125879E-02</totfact>
</mgrwt>
</event>
<event>
 4    1  0.4231559E-004  0.6069764E+01  0.7818608E-02  0.2406431E+00
         -1   -1    0    0    0  501 -0.00000000000E+00  0.00000000000E+00  0.25829817714E+02  0.25829818206E+02  0.50400000000E-02 0. -1.
          1   -1    0    0  501    0  0.00000000000E+00 -0.00000000000E+00 -0.35656600571E+00  0.35660162370E+00  0.50400000000E-02 0.  1.
         31    1    1    2    0    0 -0.10316125865E+01  0.14089889738E+00  0.11157763386E+02  0.11557346619E+02  0.28271010000E+01 0.  1.
        -31    1    1    2    0    0  0.10316125865E+01 -0.14089889738E+00  0.14315488322E+02  0.14629073210E+02  0.28271010000E+01 0. -1.
<mgrwt>
<rscale>  0 0.60697637E+01</rscale>
<asrwt>0</asrwt>
<pdfrwt beam="2">  1        1 0.74995396E+00 0.60697637E+01</pdfrwt>
<pdfrwt beam="1">  1       -1 0.21652764E+00 0.60697637E+01</pdfrwt>
<totfact> 0.11915411E-02</totfact>
</mgrwt>
</event>
<event>
 4    1  0.4231559E-004  0.6367941E+01  0.7818608E-02  0.2369862E+00
          1   -1    0    0  501    0  0.00000000000E+00  0.00000000000E+00  0.69735801887E+02  0.69735802069E+02  0.50400000000E-02 0. -1.
         -1   -1    0    0    0  501 -0.00000000000E+00 -0.00000000000E+00 -0.14532863637E+00  0.14541600376E+00  0.50400000000E-02 0.  1.
         31    1    1    2    0    0  0.15094383609E+00  0.33099164217E+00  0.50364383637E+02  0.50444979717E+02  0.28271010000E+01 0. -1.
        -31    1    1    2    0    0 -0.15094383609E+00 -0.33099164217E+00  0.19226089614E+02  0.19436238356E+02  0.28271010000E+01 0.  1.
<mgrwt>
<rscale>  0 0.63679410E+01</rscale>
<asrwt>0</asrwt>
<pdfrwt beam="1">  1        1 0.57782680E+00 0.63679410E+01</pdfrwt>
<pdfrwt beam="2">  1       -1 0.30931769E+00 0.63679410E+01</pdfrwt>
<totfact> 0.29281162E-02</totfact>
</mgrwt>
</event>
<event>
 4    1  0.4231559E-004  0.5926722E+01  0.7818608E-02  0.2425059E+00
          1   -1    0    0  501    0  0.00000000000E+00  0.00000000000E+00  0.47754381044E+02  0.47754381310E+02  0.50400000000E-02 0. -1.
         -1   -1    0    0    0  501 -0.00000000000E+00 -0.00000000000E+00 -0.18385427660E+00  0.18392334442E+00  0.50400000000E-02 0.  1.
         31    1    1    2    0    0  0.60664130445E+00 -0.41895044658E+00  0.19777773125E+02  0.19992407134E+02  0.28271010000E+01 0.  1.
        -31    1    1    2    0    0 -0.60664130445E+00  0.41895044658E+00  0.27792753643E+02  0.27945897521E+02  0.28271010000E+01 0. -1.
<mgrwt>
<rscale>  0 0.59267222E+01</rscale>
<asrwt>0</asrwt>
<pdfrwt beam="1">  1        1 0.39638744E+00 0.59267222E+01</pdfrwt>
<pdfrwt beam="2">  1       -1 0.39058327E+00 0.59267222E+01</pdfrwt>
<totfact> 0.57107547E-02</totfact>
</mgrwt>
</event>
<event>
 4    1  0.4231559E-004  0.6745743E+01  0.7818608E-02  0.2327416E+00
          1   -1    0    0  501    0  0.00000000000E+00  0.00000000000E+00  0.37285343600E+02  0.37285343941E+02  0.50400000000E-02 0.  1.
         -1   -1    0    0    0  501 -0.00000000000E+00 -0.00000000000E+00 -0.30509235529E+00  0.30513398181E+00  0.50400000000E-02 0. -1.
         31    1    1    2    0    0  0.62412926407E+00  0.11929892888E+01  0.11505609561E+02  0.11924106348E+02  0.28271010000E+01 0. -1.
        -31    1    1    2    0    0 -0.62412926407E+00 -0.11929892888E+01  0.25474641684E+02  0.25666371574E+02  0.28271010000E+01 0.  1.
<mgrwt>
<rscale>  0 0.67457430E+01</rscale>
<asrwt>0</asrwt>
<pdfrwt beam="1">  1        1 0.31082437E+00 0.67457430E+01</pdfrwt>
<pdfrwt beam="2">  1       -1 0.64528103E+00 0.67457430E+01</pdfrwt>
<totfact> 0.38708602E-03</totfact>
</mgrwt>
</event>
<event>
 4    1  0.4231559E-004  0.5881549E+01  0.7818608E-02  0.2431100E+00
         -1   -1    0    0    0  501 -0.00000000000E+00  0.00000000000E+00  0.37540666005E+02  0.37540666344E+02  0.50400000000E-02 0.  1.
          1   -1    0    0  501    0  0.00000000000E+00 -0.00000000000E+00 -0.23033970961E+00  0.23039484244E+00  0.50400000000E-02 0. -1.
         31    1    1    2    0    0  0.23551388315E+00  0.14991686538E+00  0.23536323843E+02  0.23707150439E+02  0.28271010000E+01 0.  1.
        -31    1    1    2    0    0 -0.23551388315E+00 -0.14991686538E+00  0.13774002453E+02  0.14063910747E+02  0.28271010000E+01 0. -1.
<mgrwt>
<rscale>  0 0.58815487E+01</rscale>
<asrwt>0</asrwt>
<pdfrwt beam="2">  1        1 0.48819280E+00 0.58815487E+01</pdfrwt>
<pdfrwt beam="1">  1       -1 0.31231756E+00 0.58815487E+01</pdfrwt>
<totfact> 0.70524583E-02</totfact>
</mgrwt>
</event>
<event>
 4    1  0.4231559E-004  0.6932474E+01  0.7818608E-02  0.2307856E+00
         -1   -1    0    0    0  501 -0.00000000000E+00  0.00000000000E+00  0.42744922514E+02  0.42744922811E+02  0.50400000000E-02 0. -1.
          1   -1    0    0  501    0  0.00000000000E+00 -0.00000000000E+00 -0.28105840337E+00  0.28110358892E+00  0.50400000000E-02 0.  1.
         31    1    1    2    0    0  0.80598314036E-01  0.11911998147E+01  0.31233452287E+02  0.31383857235E+02  0.28271010000E+01 0. -1.
        -31    1    1    2    0    0 -0.80598314036E-01 -0.11911998147E+01  0.11230411823E+02  0.11642169165E+02  0.28271010000E+01 0.  1.
<mgrwt>
<rscale>  0 0.69324738E+01</rscale>
<asrwt>0</asrwt>
<pdfrwt beam="2">  1        1 0.59540489E+00 0.69324738E+01</pdfrwt>
<pdfrwt beam="1">  1       -1 0.35576929E+00 0.69324738E+01</pdfrwt>
<totfact> 0.12788233E-02</totfact>
</mgrwt>
</event>
<event>
 4    1  0.4231559E-004  0.6648939E+01  0.7818608E-02  0.2337911E+00
         -1   -1    0    0    0  501 -0.00000000000E+00  0.00000000000E+00  0.27947831917E+02  0.27947832371E+02  0.50400000000E-02 0. -1.
          1   -1    0    0  501    0  0.00000000000E+00 -0.00000000000E+00 -0.39543801301E+00  0.39547013002E+00  0.50400000000E-02 0.  1.
         31    1    1    2    0    0 -0.25291469370E+00 -0.88126739234E+00  0.74261544662E+01  0.79988041781E+01  0.28271010000E+01 0.  1.
        -31    1    1    2    0    0  0.25291469370E+00  0.88126739234E+00  0.20126239437E+02  0.20344498323E+02  0.28271010000E+01 0. -1.
<mgrwt>
<rscale>  0 0.66489388E+01</rscale>
<asrwt>0</asrwt>
<pdfrwt beam="2">  1        1 0.83142175E+00 0.66489388E+01</pdfrwt>
<pdfrwt beam="1">  1       -1 0.23436226E+00 0.66489388E+01</pdfrwt>
<totfact> 0.21407923E-03</totfact>
</mgrwt>
</event>
<event>
 4    1  0.4231559E-004  0.7359853E+01  0.7818608E-02  0.2266175E+00
         -1   -1    0    0    0  501 -0.00000000000E+00  0.00000000000E+00  0.42664202966E+02  0.42664203263E+02  0.50400000000E-02 0.  1.
          1   -1    0    0  501    0  0.00000000000E+00 -0.00000000000E+00 -0.31738536092E+00  0.31742537537E+00  0.50400000000E-02 0. -1.
         31    1    1    2    0    0  0.58778965067E+00  0.22083320832E+01  0.17833185192E+02  0.18199923665E+02  0.28271010000E+01 0. -1.
        -31    1    1    2    0    0 -0.58778965067E+00 -0.22083320832E+01  0.24513632413E+02  0.24781704973E+02  0.28271010000E+01 0.  1.
<mgrwt>
<rscale>  0 0.73598532E+01</rscale>
<asrwt>0</asrwt>
<pdfrwt beam="2">  1        1 0.67177309E+00 0.73598532E+01</pdfrwt>
<pdfrwt beam="1">  1       -1 0.35540218E+00 0.73598532E+01</pdfrwt>
<totfact> 0.51641051E-03</totfact>
</mgrwt>
</event>
<event>
 4    1  0.4231559E-004  0.6149274E+01  0.7818608E-02  0.2396391E+00
          1   -1    0    0  501    0  0.00000000000E+00  0.00000000000E+00  0.57778264835E+02  0.57778265054E+02  0.50400000000E-02 0.  1.
         -1   -1    0    0    0  501 -0.00000000000E+00 -0.00000000000E+00 -0.16357597308E+00  0.16365359931E+00  0.50400000000E-02 0. -1.
         31    1    1    2    0    0 -0.65051039597E+00 -0.18633195590E+00  0.38244067316E+02  0.38354387862E+02  0.28271010000E+01 0.  1.
        -31    1    1    2    0    0  0.65051039597E+00  0.18633195590E+00  0.19370621546E+02  0.19587530791E+02  0.28271010000E+01 0. -1.
<mgrwt>
<rscale>  0 0.61492735E+01</rscale>
<asrwt>0</asrwt>
<pdfrwt beam="1">  1        1 0.47910432E+00 0.61492735E+01</pdfrwt>
<pdfrwt beam="2">  1       -1 0.34787395E+00 0.61492735E+01</pdfrwt>
<totfact> 0.47655404E-02</totfact>
</mgrwt>
</event>
<event>
 4    1  0.4231559E-004  0.6588983E+01  0.7818608E-02  0.2344539E+00
         -1   -1    0    0    0  501 -0.00000000000E+00  0.00000000000E+00  0.38285443978E+02  0.38285444310E+02  0.50400000000E-02 0. -1.
          1   -1    0    0  501    0  0.00000000000E+00 -0.00000000000E+00 -0.28347075423E+00  0.28351555531E+00  0.50400000000E-02 0.  1.
         31    1    1    2    0    0  0.55829796867E-01  0.15873830795E+01  0.22405480439E+02  0.22638925676E+02  0.28271010000E+01 0.  1.
        -31    1    1    2    0    0 -0.55829796867E-01 -0.15873830795E+01  0.15596492786E+02  0.15930034190E+02  0.28271010000E+01 0. -1.
<mgrwt>
<rscale>  0 0.65889829E+01</rscale>
<asrwt>0</asrwt>
<pdfrwt beam="2">  1        1 0.60002038E+00 0.65889829E+01</pdfrwt>
<pdfrwt beam="1">  1       -1 0.31891515E+00 0.65889829E+01</pdfrwt>
<totfact> 0.20121342E-02</totfact>
</mgrwt>
</event>
<event>
 4    1  0.4231559E-004  0.6194817E+01  0.7818608E-02  0.2390737E+00
         -1   -1    0    0    0  501 -0.00000000000E+00  0.00000000000E+00  0.43312206572E+02  0.43312206865E+02  0.50400000000E-02 0.  1.
          1   -1    0    0  501    0  0.00000000000E+00 -0.00000000000E+00 -0.22147762325E+00  0.22153496157E+00  0.50400000000E-02 0. -1.
         31    1    1    2    0    0 -0.10436582940E+01 -0.31245703644E+00  0.26070226357E+02  0.26245686396E+02  0.28271010000E+01 0.  1.
        -31    1    1    2    0    0  0.10436582940E+01  0.31245703644E+00  0.17020502591E+02  0.17288055430E+02  0.28271010000E+01 0.  1.
<mgrwt>
<rscale>  0 0.61948169E+01</rscale>
<asrwt>0</asrwt>
<pdfrwt beam="2">  1        1 0.46989207E+00 0.61948169E+01</pdfrwt>
<pdfrwt beam="1">  1       -1 0.35996744E+00 0.61948169E+01</pdfrwt>
<totfact> 0.44113875E-02</totfact>
</mgrwt>
</event>
<event>
 4    1  0.4231559E-004  0.5796845E+01  0.7818608E-02  0.2442639E+00
          1   -1    0    0  501    0  0.00000000000E+00  0.00000000000E+00  0.58607770441E+02  0.58607770657E+02  0.50400000000E-02 0. -1.
         -1   -1    0    0    0  501 -0.00000000000E+00 -0.00000000000E+00 -0.14329573211E+00  0.14338433820E+00  0.50400000000E-02 0.  1.
         31    1    1    2    0    0 -0.20305168540E+00  0.37474261471E+00  0.24406747532E+02  0.24573633984E+02  0.28271010000E+01 0.  1.
        -31    1    1    2    0    0  0.20305168540E+00 -0.37474261471E+00  0.34057727176E+02  0.34177521012E+02  0.28271010000E+01 0. -1.
<mgrwt>
<rscale>  0 0.57968449E+01</rscale>
<asrwt>0</asrwt>
<pdfrwt beam="1">  1        1 0.48579566E+00 0.57968449E+01</pdfrwt>
<pdfrwt beam="2">  1       -1 0.30488363E+00 0.57968449E+01</pdfrwt>
<totfact> 0.79727252E-02</totfact>
</mgrwt>
</event>
<event>
 4    1  0.4231559E-004  0.5724536E+01  0.7818608E-02  0.2452716E+00
          1   -1    0    0  501    0  0.00000000000E+00  0.00000000000E+00  0.31330999514E+02  0.31330999920E+02  0.50400000000E-02 0. -1.
         -1   -1    0    0    0  501 -0.00000000000E+00 -0.00000000000E+00 -0.26146006500E+00  0.26150863693E+00  0.50400000000E-02 0.  1.
         31    1    1    2    0    0 -0.33426138162E+00 -0.27831212500E+00  0.14958843616E+02  0.15229861808E+02  0.28271010000E+01 0. -1.
        -31    1    1    2    0    0  0.33426138162E+00  0.27831212500E+00  0.16110695834E+02  0.16362646748E+02  0.28271010000E+01 0.  1.
<mgrwt>
<rscale>  0 0.57245363E+01</rscale>
<asrwt>0</asrwt>
<pdfrwt beam="1">  1        1 0.26122896E+00 0.57245363E+01</pdfrwt>
<pdfrwt beam="2">  1       -1 0.55292175E+00 0.57245363E+01</pdfrwt>
<totfact> 0.15979260E-02</totfact>
</mgrwt>
</event>
<event>
 4    1  0.4231559E-004  0.6346465E+01  0.7818608E-02  0.2372400E+00
         -1   -1    0    0    0  501 -0.00000000000E+00  0.00000000000E+00  0.37053615645E+02  0.37053615988E+02  0.50400000000E-02 0. -1.
          1   -1    0    0  501    0  0.00000000000E+00 -0.00000000000E+00 -0.27172859332E+00  0.27177533005E+00  0.50400000000E-02 0.  1.
         31    1    1    2    0    0  0.64992259828E+00  0.21996455296E-01  0.10827089735E+02  0.11208981016E+02  0.28271010000E+01 0.  1.
        -31    1    1    2    0    0 -0.64992259828E+00 -0.21996455296E-01  0.25954797317E+02  0.26116410302E+02  0.28271010000E+01 0. -1.
<mgrwt>
<rscale>  0 0.63464653E+01</rscale>
<asrwt>0</asrwt>
<pdfrwt beam="2">  1        1 0.57521025E+00 0.63464653E+01</pdfrwt>
<pdfrwt beam="1">  1       -1 0.30863245E+00 0.63464653E+01</pdfrwt>
<totfact> 0.30403966E-02</totfact>
</mgrwt>
</event>
<event>
 4    1  0.4231559E-004  0.6332174E+01  0.7818608E-02  0.2374097E+00
          1   -1    0    0  501    0  0.00000000000E+00  0.00000000000E+00  0.69121321414E+02  0.69121321598E+02  0.50400000000E-02 0. -1.
         -1   -1    0    0    0  501 -0.00000000000E+00 -0.00000000000E+00 -0.14497794596E+00  0.14506552455E+00  0.50400000000E-02 0.  1.
         31    1    1    2    0    0 -0.95982166387E+00 -0.10247083001E+01  0.37174797644E+02  0.37308569587E+02  0.28271010000E+01 0.  1.
        -31    1    1    2    0    0  0.95982166387E+00  0.10247083001E+01  0.31801545824E+02  0.31957817535E+02  0.28271010000E+01 0.  1.
<mgrwt>
<rscale>  0 0.63321739E+01</rscale>
<asrwt>0</asrwt>
<pdfrwt beam="1">  1        1 0.57274295E+00 0.63321739E+01</pdfrwt>
<pdfrwt beam="2">  1       -1 0.30856759E+00 0.63321739E+01</pdfrwt>
<totfact> 0.31252454E-02</totfact>
</mgrwt>
</event>
<event>
 4    1  0.4231559E-004  0.5923390E+01  0.7818608E-02  0.2425502E+00
          1   -1    0    0  501    0  0.00000000000E+00  0.00000000000E+00  0.50331801944E+02  0.50331802197E+02  0.50400000000E-02 0.  1.
         -1   -1    0    0    0  501 -0.00000000000E+00 -0.00000000000E+00 -0.17423957939E+00  0.17431245688E+00  0.50400000000E-02 0. -1.
         31    1    1    2    0    0 -0.83555488087E+00 -0.53085183930E-01  0.27462692066E+02  0.27620516388E+02  0.28271010000E+01 0.  1.
        -31    1    1    2    0    0  0.83555488087E+00  0.53085183930E-01  0.22694870299E+02  0.22885598265E+02  0.28271010000E+01 0.  1.
<mgrwt>
<rscale>  0 0.59233905E+01</rscale>
<asrwt>0</asrwt>
<pdfrwt beam="1">  1        1 0.41761989E+00 0.59233905E+01</pdfrwt>
<pdfrwt beam="2">  1       -1 0.37030872E+00 0.59233905E+01</pdfrwt>
<totfact> 0.62521975E-02</totfact>
</mgrwt>
</event>
<event>
 4    1  0.4231559E-004  0.6080512E+01  0.7818608E-02  0.2405061E+00
          1   -1    0    0  501    0  0.00000000000E+00  0.00000000000E+00  0.39580490032E+02  0.39580490353E+02  0.50400000000E-02 0. -1.
         -1   -1    0    0    0  501 -0.00000000000E+00 -0.00000000000E+00 -0.23350059130E+00  0.23355497798E+00  0.50400000000E-02 0.  1.
         31    1    1    2    0    0  0.39785683931E+00  0.84950935286E+00  0.15686847510E+02  0.15967142546E+02  0.28271010000E+01 0. -1.
        -31    1    1    2    0    0 -0.39785683931E+00 -0.84950935286E+00  0.23660141931E+02  0.23846902785E+02  0.28271010000E+01 0. -1.
<mgrwt>
<rscale>  0 0.60805121E+01</rscale>
<asrwt>0</asrwt>
<pdfrwt beam="1">  1        1 0.32921038E+00 0.60805121E+01</pdfrwt>
<pdfrwt beam="2">  1       -1 0.49500681E+00 0.60805121E+01</pdfrwt>
<totfact> 0.21483993E-02</totfact>
</mgrwt>
</event>
<event>
 4    1  0.4231559E-004  0.6351954E+01  0.7818608E-02  0.2371750E+00
         -1   -1    0    0    0  501 -0.00000000000E+00  0.00000000000E+00  0.60758519125E+02  0.60758519334E+02  0.50400000000E-02 0. -1.
          1   -1    0    0  501    0  0.00000000000E+00 -0.00000000000E+00 -0.16597663300E+00  0.16605313699E+00  0.50400000000E-02 0.  1.
         31    1    1    2    0    0 -0.46021696915E+00  0.30990555736E+00  0.43116194459E+02  0.43212342748E+02  0.28271010000E+01 0. -1.
        -31    1    1    2    0    0  0.46021696915E+00 -0.30990555736E+00  0.17476348033E+02  0.17712229723E+02  0.28271010000E+01 0.  1.
<mgrwt>
<rscale>  0 0.63519544E+01</rscale>
<asrwt>0</asrwt>
<pdfrwt beam="2">  1        1 0.35301196E+00 0.63519544E+01</pdfrwt>
<pdfrwt beam="1">  1       -1 0.50376699E+00 0.63519544E+01</pdfrwt>
<totfact> 0.15110247E-02</totfact>
</mgrwt>
</event>
<event>
 4    1  0.4231559E-004  0.6194055E+01  0.7818608E-02  0.2390831E+00
          1   -1    0    0  501    0  0.00000000000E+00  0.00000000000E+00  0.65262771096E+02  0.65262771291E+02  0.50400000000E-02 0. -1.
         -1   -1    0    0    0  501 -0.00000000000E+00 -0.00000000000E+00 -0.14692521061E+00  0.14701162918E+00  0.50400000000E-02 0.  1.
         31    1    1    2    0    0 -0.31439266304E-01 -0.46093315210E+00  0.20127340354E+02  0.20330169148E+02  0.28271010000E+01 0.  1.
        -31    1    1    2    0    0  0.31439266304E-01  0.46093315210E+00  0.44988505531E+02  0.45079613772E+02  0.28271010000E+01 0. -1.
<mgrwt>
<rscale>  0 0.61940549E+01</rscale>
<asrwt>0</asrwt>
<pdfrwt beam="1">  1        1 0.54085385E+00 0.61940549E+01</pdfrwt>
<pdfrwt beam="2">  1       -1 0.31266161E+00 0.61940549E+01</pdfrwt>
<totfact> 0.41407101E-02</totfact>
</mgrwt>
</event>
<event>
 4    1  0.4231559E-004  0.5926677E+01  0.7818608E-02  0.2425065E+00
         -1   -1    0    0    0  501 -0.00000000000E+00  0.00000000000E+00  0.28873861816E+02  0.28873862256E+02  0.50400000000E-02 0. -1.
          1   -1    0    0  501    0  0.00000000000E+00 -0.00000000000E+00 -0.30410754526E+00  0.30414930657E+00  0.50400000000E-02 0.  1.
         31    1    1    2    0    0  0.26873201225E+00  0.84021559322E+00  0.14794031242E+02  0.15087545844E+02  0.28271010000E+01 0. -1.
        -31    1    1    2    0    0 -0.26873201225E+00 -0.84021559322E+00  0.13775723029E+02  0.14090465719E+02  0.28271010000E+01 0. -1.
<mgrwt>
<rscale>  0 0.59266769E+01</rscale>
<asrwt>0</asrwt>
<pdfrwt beam="2">  1        1 0.64170287E+00 0.59266769E+01</pdfrwt>
<pdfrwt beam="1">  1       -1 0.24126421E+00 0.59266769E+01</pdfrwt>
<totfact> 0.35826455E-02</totfact>
</mgrwt>
</event>
<event>
 4    1  0.4231559E-004  0.5753516E+01  0.7818608E-02  0.2448652E+00
         -1   -1    0    0    0  501 -0.00000000000E+00  0.00000000000E+00  0.40089609122E+02  0.40089609439E+02  0.50400000000E-02 0.  1.
          1   -1    0    0  501    0  0.00000000000E+00 -0.00000000000E+00 -0.20639989285E+00  0.20646141860E+00  0.50400000000E-02 0. -1.
         31    1    1    2    0    0 -0.34624848059E+00  0.11028265542E+00  0.22664846071E+02  0.22843375358E+02  0.28271010000E+01 0. -1.
        -31    1    1    2    0    0  0.34624848059E+00 -0.11028265542E+00  0.17218363159E+02  0.17452695500E+02  0.28271010000E+01 0. -1.
<mgrwt>
<rscale>  0 0.57535162E+01</rscale>
<asrwt>0</asrwt>
<pdfrwt beam="2">  1        1 0.43789616E+00 0.57535162E+01</pdfrwt>
<pdfrwt beam="1">  1       -1 0.33319611E+00 0.57535162E+01</pdfrwt>
<totfact> 0.86009154E-02</totfact>
</mgrwt>
</event>
<event>
 4    1  0.4231559E-004  0.5858480E+01  0.7818608E-02  0.2434215E+00
          1   -1    0    0  501    0  0.00000000000E+00  0.00000000000E+00  0.52674100264E+02  0.52674100505E+02  0.50400000000E-02 0.  1.
         -1   -1    0    0    0  501 -0.00000000000E+00 -0.00000000000E+00 -0.16285765115E+00  0.16293561961E+00  0.50400000000E-02 0. -1.
         31    1    1    2    0    0 -0.11724366119E-01 -0.37492959908E+00  0.32287078162E+02  0.32412784915E+02  0.28271010000E+01 0.  1.
        -31    1    1    2    0    0  0.11724366119E-01  0.37492959908E+00  0.20224164451E+02  0.20424251209E+02  0.28271010000E+01 0. -1.
<mgrwt>
<rscale>  0 0.58584798E+01</rscale>
<asrwt>0</asrwt>
<pdfrwt beam="1">  1        1 0.43689358E+00 0.58584798E+01</pdfrwt>
<pdfrwt beam="2">  1       -1 0.34625702E+00 0.58584798E+01</pdfrwt>
<totfact> 0.72768670E-02</totfact>
</mgrwt>
</event>
<event>
 4    1  0.4231559E-004  0.6932159E+01  0.7818608E-02  0.2307888E+00
         -1   -1    0    0    0  501 -0.00000000000E+00  0.00000000000E+00  0.35104365709E+02  0.35104366071E+02  0.50400000000E-02 0.  1.
          1   -1    0    0  501    0  0.00000000000E+00 -0.00000000000E+00 -0.34220933716E+00  0.34224644927E+00  0.50400000000E-02 0. -1.
         31    1    1    2    0    0 -0.11687381347E+01 -0.15052275299E+01  0.20572514757E+02  0.20853117807E+02  0.28271010000E+01 0. -1.
        -31    1    1    2    0    0  0.11687381347E+01  0.15052275299E+01  0.14189641614E+02  0.14593494713E+02  0.28271010000E+01 0. -1.
<mgrwt>
<rscale>  0 0.69321586E+01</rscale>
<asrwt>0</asrwt>
<pdfrwt beam="2">  1        1 0.72265234E+00 0.69321586E+01</pdfrwt>
<pdfrwt beam="1">  1       -1 0.29309739E+00 0.69321586E+01</pdfrwt>
<totfact> 0.61154226E-03</totfact>
</mgrwt>
</event>
<event>
 4    1  0.4231559E-004  0.6697508E+01  0.7818608E-02  0.2332614E+00
         -1   -1    0    0    0  501 -0.00000000000E+00  0.00000000000E+00  0.59832968674E+02  0.59832968886E+02  0.50400000000E-02 0.  1.
          1   -1    0    0  501    0  0.00000000000E+00 -0.00000000000E+00 -0.18739024480E+00  0.18745800982E+00  0.50400000000E-02 0. -1.
         31    1    1    2    0    0 -0.10624490906E+01 -0.14063295281E+01  0.32863056357E+02  0.33031493064E+02  0.28271010000E+01 0. -1.
        -31    1    1    2    0    0  0.10624490906E+01  0.14063295281E+01  0.26782522071E+02  0.26988933832E+02  0.28271010000E+01 0.  1.
<mgrwt>
<rscale>  0 0.66975084E+01</rscale>
<asrwt>0</asrwt>
<pdfrwt beam="2">  1        1 0.39837733E+00 0.66975084E+01</pdfrwt>
<pdfrwt beam="1">  1       -1 0.49629088E+00 0.66975084E+01</pdfrwt>
<totfact> 0.11255383E-02</totfact>
</mgrwt>
</event>
<event>
 4    1  0.4231559E-004  0.6323102E+01  0.7818608E-02  0.2375177E+00
          1   -1    0    0  501    0  0.00000000000E+00  0.00000000000E+00  0.64168224311E+02  0.64168224509E+02  0.50400000000E-02 0.  1.
         -1   -1    0    0    0  501 -0.00000000000E+00 -0.00000000000E+00 -0.15572780519E+00  0.15580934153E+00  0.50400000000E-02 0. -1.
         31    1    1    2    0    0 -0.94775251959E+00 -0.54915597750E+00  0.41122733140E+02  0.41234348402E+02  0.28271010000E+01 0.  1.
        -31    1    1    2    0    0  0.94775251959E+00  0.54915597750E+00  0.22889763366E+02  0.23089685449E+02  0.28271010000E+01 0. -1.
<mgrwt>
<rscale>  0 0.63231022E+01</rscale>
<asrwt>0</asrwt>
<pdfrwt beam="1">  1        1 0.53187612E+00 0.63231022E+01</pdfrwt>
<pdfrwt beam="2">  1       -1 0.33132507E+00 0.63231022E+01</pdfrwt>
<totfact> 0.35286428E-02</totfact>
</mgrwt>
</event>
<event>
 4    1  0.4231559E-004  0.5821949E+01  0.7818608E-02  0.2439190E+00
          1   -1    0    0  501    0  0.00000000000E+00  0.00000000000E+00  0.46665320247E+02  0.46665320519E+02  0.50400000000E-02 0. -1.
         -1   -1    0    0    0  501 -0.00000000000E+00 -0.00000000000E+00 -0.18155082796E+00  0.18162077176E+00  0.50400000000E-02 0.  1.
         31    1    1    2    0    0  0.48271939950E+00  0.45468007580E+00  0.21602267625E+02  0.21796564376E+02  0.28271010000E+01 0.  1.
        -31    1    1    2    0    0 -0.48271939950E+00 -0.45468007580E+00  0.24881501794E+02  0.25050376915E+02  0.28271010000E+01 0. -1.
<mgrwt>
<rscale>  0 0.58219489E+01</rscale>
<asrwt>0</asrwt>
<pdfrwt beam="1">  1        1 0.38736329E+00 0.58219489E+01</pdfrwt>
<pdfrwt beam="2">  1       -1 0.38567608E+00 0.58219489E+01</pdfrwt>
<totfact> 0.66434464E-02</totfact>
</mgrwt>
</event>
<event>
 4    1  0.4231559E-004  0.5918465E+01  0.7818608E-02  0.2426158E+00
          1   -1    0    0  501    0  0.00000000000E+00  0.00000000000E+00  0.55688480324E+02  0.55688480552E+02  0.50400000000E-02 0.  1.
         -1   -1    0    0    0  501 -0.00000000000E+00 -0.00000000000E+00 -0.15721017466E+00  0.15729094258E+00  0.50400000000E-02 0. -1.
         31    1    1    2    0    0 -0.86179804806E+00 -0.12651326268E+00  0.28487697582E+02  0.28640881884E+02  0.28271010000E+01 0. -1.
        -31    1    1    2    0    0  0.86179804806E+00  0.12651326268E+00  0.27043572568E+02  0.27204889611E+02  0.28271010000E+01 0. -1.
<mgrwt>
<rscale>  0 0.59184651E+01</rscale>
<asrwt>0</asrwt>
<pdfrwt beam="1">  1        1 0.46177191E+00 0.59184651E+01</pdfrwt>
<pdfrwt beam="2">  1       -1 0.33434517E+00 0.59184651E+01</pdfrwt>
<totfact> 0.67647735E-02</totfact>
</mgrwt>
</event>
<event>
 4    1  0.4231559E-004  0.5997109E+01  0.7818608E-02  0.2415800E+00
          1   -1    0    0  501    0  0.00000000000E+00  0.00000000000E+00  0.49233389274E+02  0.49233389532E+02  0.50400000000E-02 0. -1.
         -1   -1    0    0    0  501 -0.00000000000E+00 -0.00000000000E+00 -0.18259164246E+00  0.18266118772E+00  0.50400000000E-02 0.  1.
         31    1    1    2    0    0  0.49880943984E+00  0.86600944043E+00  0.24581791753E+02  0.24764001475E+02  0.28271010000E+01 0. -1.
        -31    1    1    2    0    0 -0.49880943984E+00 -0.86600944043E+00  0.24469005879E+02  0.24652049245E+02  0.28271010000E+01 0. -1.
<mgrwt>
<rscale>  0 0.59971093E+01</rscale>
<asrwt>0</asrwt>
<pdfrwt beam="1">  1        1 0.40860648E+00 0.59971093E+01</pdfrwt>
<pdfrwt beam="2">  1       -1 0.38795653E+00 0.59971093E+01</pdfrwt>
<totfact> 0.53016733E-02</totfact>
</mgrwt>
</event>
<event>
 4    1  0.4231559E-004  0.5851718E+01  0.7818608E-02  0.2435132E+00
         -1   -1    0    0    0  501 -0.00000000000E+00  0.00000000000E+00  0.34996098013E+02  0.34996098376E+02  0.50400000000E-02 0.  1.
          1   -1    0    0  501    0  0.00000000000E+00 -0.00000000000E+00 -0.24459094595E+00  0.24464286714E+00  0.50400000000E-02 0. -1.
         31    1    1    2    0    0 -0.57514889297E+00  0.48717733664E+00  0.17396538512E+02  0.17640867050E+02  0.28271010000E+01 0.  1.
        -31    1    1    2    0    0  0.57514889297E+00 -0.48717733664E+00  0.17354968555E+02  0.17599874193E+02  0.28271010000E+01 0.  1.
<mgrwt>
<rscale>  0 0.58517177E+01</rscale>
<asrwt>0</asrwt>
<pdfrwt beam="2">  1        1 0.51795122E+00 0.58517177E+01</pdfrwt>
<pdfrwt beam="1">  1       -1 0.29139511E+00 0.58517177E+01</pdfrwt>
<totfact> 0.69542594E-02</totfact>
</mgrwt>
</event>
<event>
 4    1  0.4231559E-004  0.6305488E+01  0.7818608E-02  0.2377282E+00
          1   -1    0    0  501    0  0.00000000000E+00  0.00000000000E+00  0.30756684639E+02  0.30756685052E+02  0.50400000000E-02 0. -1.
         -1   -1    0    0    0  501 -0.00000000000E+00 -0.00000000000E+00 -0.32315499382E+00  0.32319429393E+00  0.50400000000E-02 0.  1.
         31    1    1    2    0    0  0.12054057412E+01  0.68863254156E+00  0.15915148624E+02  0.16223799603E+02  0.28271010000E+01 0. -1.
        -31    1    1    2    0    0 -0.12054057412E+01 -0.68863254156E+00  0.14518381021E+02  0.14856079742E+02  0.28271010000E+01 0.  1.
<mgrwt>
<rscale>  0 0.63054876E+01</rscale>
<asrwt>0</asrwt>
<pdfrwt beam="1">  1        1 0.25699019E+00 0.63054876E+01</pdfrwt>
<pdfrwt beam="2">  1       -1 0.68190706E+00 0.63054876E+01</pdfrwt>
<totfact> 0.51621819E-03</totfact>
</mgrwt>
</event>
<event>
 4    1  0.4231559E-004  0.5701617E+01  0.7818608E-02  0.2455955E+00
         -1   -1    0    0    0  501 -0.00000000000E+00  0.00000000000E+00  0.38023061663E+02  0.38023061997E+02  0.50400000000E-02 0. -1.
          1   -1    0    0  501    0  0.00000000000E+00 -0.00000000000E+00 -0.21371151861E+00  0.21377093999E+00  0.50400000000E-02 0.  1.
         31    1    1    2    0    0 -0.27109711131E+00 -0.22641373059E+00  0.19570318303E+02  0.19776617895E+02  0.28271010000E+01 0. -1.
        -31    1    1    2    0    0  0.27109711131E+00  0.22641373059E+00  0.18239031842E+02  0.18460215043E+02  0.28271010000E+01 0.  1.
<mgrwt>
<rscale>  0 0.57016169E+01</rscale>
<asrwt>0</asrwt>
<pdfrwt beam="2">  1        1 0.45319104E+00 0.57016169E+01</pdfrwt>
<pdfrwt beam="1">  1       -1 0.31616889E+00 0.57016169E+01</pdfrwt>
<totfact> 0.93628816E-02</totfact>
</mgrwt>
</event>
<event>
 4    1  0.4231559E-004  0.5846941E+01  0.7818608E-02  0.2435780E+00
         -1   -1    0    0    0  501 -0.00000000000E+00  0.00000000000E+00  0.40181813741E+02  0.40181814057E+02  0.50400000000E-02 0.  1.
          1   -1    0    0  501    0  0.00000000000E+00 -0.00000000000E+00 -0.21267001728E+00  0.21272972959E+00  0.50400000000E-02 0. -1.
         31    1    1    2    0    0 -0.66879288024E+00 -0.32041028484E+00  0.19535099752E+02  0.19752533231E+02  0.28271010000E+01 0. -1.
        -31    1    1    2    0    0  0.66879288024E+00  0.32041028484E+00  0.20434043972E+02  0.20642010556E+02  0.28271010000E+01 0.  1.
<mgrwt>
<rscale>  0 0.58469409E+01</rscale>
<asrwt>0</asrwt>
<pdfrwt beam="2">  1        1 0.45113016E+00 0.58469409E+01</pdfrwt>
<pdfrwt beam="1">  1       -1 0.33401035E+00 0.58469409E+01</pdfrwt>
<totfact> 0.75157015E-02</totfact>
</mgrwt>
</event>
<event>
 4    1  0.4231559E-004  0.5807048E+01  0.7818608E-02  0.2441234E+00
         -1   -1    0    0    0  501 -0.00000000000E+00  0.00000000000E+00  0.34361037360E+02  0.34361037729E+02  0.50400000000E-02 0.  1.
          1   -1    0    0  501    0  0.00000000000E+00 -0.00000000000E+00 -0.24532289355E+00  0.24537465985E+00  0.50400000000E-02 0. -1.
         31    1    1    2    0    0  0.67893260127E-01 -0.65817094772E+00  0.16984222536E+02  0.17230615593E+02  0.28271010000E+01 0. -1.
        -31    1    1    2    0    0 -0.67893260127E-01  0.65817094772E+00  0.17131491930E+02  0.17375796796E+02  0.28271010000E+01 0.  1.
<mgrwt>
<rscale>  0 0.58070479E+01</rscale>
<asrwt>0</asrwt>
<pdfrwt beam="2">  1        1 0.51942327E+00 0.58070479E+01</pdfrwt>
<pdfrwt beam="1">  1       -1 0.28615003E+00 0.58070479E+01</pdfrwt>
<totfact> 0.73507473E-02</totfact>
</mgrwt>
</event>
<event>
 4    1  0.4231559E-004  0.6821425E+01  0.7818608E-02  0.2319382E+00
          1   -1    0    0  501    0  0.00000000000E+00  0.00000000000E+00  0.58631819455E+02  0.58631819671E+02  0.50400000000E-02 0. -1.
         -1   -1    0    0    0  501 -0.00000000000E+00 -0.00000000000E+00 -0.19837472042E+00  0.19843873438E+00  0.50400000000E-02 0.  1.
         31    1    1    2    0    0 -0.87423120642E-01 -0.13030385913E+01  0.17220188972E+02  0.17499513155E+02  0.28271010000E+01 0.  1.
        -31    1    1    2    0    0  0.87423120642E-01  0.13030385913E+01  0.41213255762E+02  0.41330745250E+02  0.28271010000E+01 0. -1.
<mgrwt>
<rscale>  0 0.68214251E+01</rscale>
<asrwt>0</asrwt>
<pdfrwt beam="1">  1        1 0.48644974E+00 0.68214251E+01</pdfrwt>
<pdfrwt beam="2">  1       -1 0.42161557E+00 0.68214251E+01</pdfrwt>
<totfact> 0.15500932E-02</totfact>
</mgrwt>
</event>
<event>
 4    1  0.4231559E-004  0.6638988E+01  0.7818608E-02  0.2339005E+00
         -1   -1    0    0    0  501 -0.00000000000E+00  0.00000000000E+00  0.36136240780E+02  0.36136241131E+02  0.50400000000E-02 0. -1.
          1   -1    0    0  501    0  0.00000000000E+00 -0.00000000000E+00 -0.30490926705E+00  0.30495091856E+00  0.50400000000E-02 0.  1.
         31    1    1    2    0    0  0.12391860765E+01  0.11221913510E+01  0.20557475803E+02  0.20818194134E+02  0.28271010000E+01 0. -1.
        -31    1    1    2    0    0 -0.12391860765E+01 -0.11221913510E+01  0.15273855710E+02  0.15622997916E+02  0.28271010000E+01 0.  1.
<mgrwt>
<rscale>  0 0.66389879E+01</rscale>
<asrwt>0</asrwt>
<pdfrwt beam="2">  1        1 0.64473069E+00 0.66389879E+01</pdfrwt>
<pdfrwt beam="1">  1       -1 0.30132127E+00 0.66389879E+01</pdfrwt>
<totfact> 0.15185302E-02</totfact>
</mgrwt>
</event>
<event>
 4    1  0.4231559E-004  0.6657653E+01  0.7818608E-02  0.2336956E+00
         -1   -1    0    0    0  501 -0.00000000000E+00  0.00000000000E+00  0.52222313150E+02  0.52222313393E+02  0.50400000000E-02 0. -1.
          1   -1    0    0  501    0  0.00000000000E+00 -0.00000000000E+00 -0.21216048348E+00  0.21222033915E+00  0.50400000000E-02 0.  1.
         31    1    1    2    0    0  0.11795054797E+01 -0.10262652728E+01  0.19684101342E+02  0.19947450947E+02  0.28271010000E+01 0.  1.
        -31    1    1    2    0    0 -0.11795054797E+01  0.10262652728E+01  0.32326051324E+02  0.32487082785E+02  0.28271010000E+01 0. -1.
<mgrwt>
<rscale>  0 0.66576533E+01</rscale>
<asrwt>0</asrwt>
<pdfrwt beam="2">  1        1 0.45060095E+00 0.66576533E+01</pdfrwt>
<pdfrwt beam="1">  1       -1 0.43356541E+00 0.66576533E+01</pdfrwt>
<totfact> 0.18336571E-02</totfact>
</mgrwt>
</event>
<event>
 4    1  0.4231559E-004  0.6918317E+01  0.7818608E-02  0.2309308E+00
          1   -1    0    0  501    0  0.00000000000E+00  0.00000000000E+00  0.66644045990E+02  0.66644046180E+02  0.50400000000E-02 0. -1.
         -1   -1    0    0    0  501 -0.00000000000E+00 -0.00000000000E+00 -0.17951201902E+00  0.17958275689E+00  0.50400000000E-02 0.  1.
         31    1    1    2    0    0 -0.51294970960E+00 -0.15328520887E+01  0.44498603709E+02  0.44617608464E+02  0.28271010000E+01 0. -1.
        -31    1    1    2    0    0  0.51294970960E+00  0.15328520887E+01  0.21965930262E+02  0.22206020473E+02  0.28271010000E+01 0. -1.
<mgrwt>
<rscale>  0 0.69183169E+01</rscale>
<asrwt>0</asrwt>
<pdfrwt beam="1">  1        1 0.55254452E+00 0.69183169E+01</pdfrwt>
<pdfrwt beam="2">  1       -1 0.38180183E+00 0.69183169E+01</pdfrwt>
<totfact> 0.14122617E-02</totfact>
</mgrwt>
</event>
<event>
 4    1  0.4231559E-004  0.5782583E+01  0.7818608E-02  0.2444610E+00
         -1   -1    0    0    0  501 -0.00000000000E+00  0.00000000000E+00  0.24955216140E+02  0.24955216649E+02  0.50400000000E-02 0. -1.
          1   -1    0    0  501    0  0.00000000000E+00 -0.00000000000E+00 -0.33496328788E+00  0.33500120272E+00  0.50400000000E-02 0.  1.
         31    1    1    2    0    0 -0.21603536015E+00 -0.21318779572E+00  0.14603395267E+02  0.14877626615E+02  0.28271010000E+01 0.  1.
        -31    1    1    2    0    0  0.21603536015E+00  0.21318779572E+00  0.10016857586E+02  0.10412591237E+02  0.28271010000E+01 0.  1.
<mgrwt>
<rscale>  0 0.57825832E+01</rscale>
<asrwt>0</asrwt>
<pdfrwt beam="2">  1        1 0.70478780E+00 0.57825832E+01</pdfrwt>
<pdfrwt beam="1">  1       -1 0.20911722E+00 0.57825832E+01</pdfrwt>
<totfact> 0.25475280E-02</totfact>
</mgrwt>
</event>
<event>
 4    1  0.4231559E-004  0.6606066E+01  0.7818608E-02  0.2342641E+00
          1   -1    0    0  501    0  0.00000000000E+00  0.00000000000E+00  0.48411346903E+02  0.48411347165E+02  0.50400000000E-02 0. -1.
         -1   -1    0    0    0  501 -0.00000000000E+00 -0.00000000000E+00 -0.22533250718E+00  0.22538886483E+00  0.50400000000E-02 0.  1.
         31    1    1    2    0    0 -0.87240476476E+00  0.52605951859E-01  0.13288348654E+02  0.13613837353E+02  0.28271010000E+01 0.  1.
        -31    1    1    2    0    0  0.87240476476E+00 -0.52605951859E-01  0.34897665742E+02  0.35022898677E+02  0.28271010000E+01 0. -1.
<mgrwt>
<rscale>  0 0.66060660E+01</rscale>
<asrwt>0</asrwt>
<pdfrwt beam="1">  1        1 0.40216256E+00 0.66060660E+01</pdfrwt>
<pdfrwt beam="2">  1       -1 0.47828699E+00 0.66060660E+01</pdfrwt>
<totfact> 0.14456261E-02</totfact>
</mgrwt>
</event>
<event>
 4    1  0.4231559E-004  0.6248196E+01  0.7818608E-02  0.2384198E+00
         -1   -1    0    0    0  501 -0.00000000000E+00  0.00000000000E+00  0.37124744110E+02  0.37124744452E+02  0.50400000000E-02 0.  1.
          1   -1    0    0  501    0  0.00000000000E+00 -0.00000000000E+00 -0.26287264294E+00  0.26292095391E+00  0.50400000000E-02 0. -1.
         31    1    1    2    0    0  0.33924659749E+00 -0.52543392434E+00  0.11410995840E+02  0.11772616328E+02  0.28271010000E+01 0. -1.
        -31    1    1    2    0    0 -0.33924659749E+00  0.52543392434E+00  0.25450875627E+02  0.25615049078E+02  0.28271010000E+01 0.  1.
<mgrwt>
<rscale>  0 0.62481963E+01</rscale>
<asrwt>0</asrwt>
<pdfrwt beam="2">  1        1 0.55660633E+00 0.62481963E+01</pdfrwt>
<pdfrwt beam="1">  1       -1 0.30914738E+00 0.62481963E+01</pdfrwt>
<totfact> 0.36830715E-02</totfact>
</mgrwt>
</event>
<event>
 4    1  0.4231559E-004  0.6070799E+01  0.7818608E-02  0.2406299E+00
         -1   -1    0    0    0  501 -0.00000000000E+00  0.00000000000E+00  0.44893959208E+02  0.44893959491E+02  0.50400000000E-02 0. -1.
          1   -1    0    0  501    0  0.00000000000E+00 -0.00000000000E+00 -0.20520014679E+00  0.20526203215E+00  0.50400000000E-02 0.  1.
         31    1    1    2    0    0 -0.69051771767E-01 -0.10549154341E+01  0.24734748464E+02  0.24918224181E+02  0.28271010000E+01 0. -1.
        -31    1    1    2    0    0  0.69051771767E-01  0.10549154341E+01  0.19954010598E+02  0.20180997342E+02  0.28271010000E+01 0.  1.
<mgrwt>
<rscale>  0 0.60707986E+01</rscale>
<asrwt>0</asrwt>
<pdfrwt beam="2">  1        1 0.43560190E+00 0.60707986E+01</pdfrwt>
<pdfrwt beam="1">  1       -1 0.37291192E+00 0.60707986E+01</pdfrwt>
<totfact> 0.51025351E-02</totfact>
</mgrwt>
</event>
<event>
 4    1  0.4231559E-004  0.6140508E+01  0.7818608E-02  0.2397487E+00
         -1   -1    0    0    0  501 -0.00000000000E+00  0.00000000000E+00  0.33902952898E+02  0.33902953273E+02  0.50400000000E-02 0.  1.
          1   -1    0    0  501    0  0.00000000000E+00 -0.00000000000E+00 -0.27801919945E+00  0.27806487888E+00  0.50400000000E-02 0. -1.
         31    1    1    2    0    0  0.43718784253E+00 -0.36562697228E+00  0.10950081075E+02  0.11323497335E+02  0.28271010000E+01 0. -1.
        -31    1    1    2    0    0 -0.43718784253E+00  0.36562697228E+00  0.22674852624E+02  0.22857520816E+02  0.28271010000E+01 0.  1.
<mgrwt>
<rscale>  0 0.61405078E+01</rscale>
<asrwt>0</asrwt>
<pdfrwt beam="2">  1        1 0.58801816E+00 0.61405078E+01</pdfrwt>
<pdfrwt beam="1">  1       -1 0.28263257E+00 0.61405078E+01</pdfrwt>
<totfact> 0.37562609E-02</totfact>
</mgrwt>
</event>
<event>
 4    1  0.4231559E-004  0.6378961E+01  0.7818608E-02  0.2368565E+00
          1   -1    0    0  501    0  0.00000000000E+00  0.00000000000E+00  0.44468580413E+02  0.44468580698E+02  0.50400000000E-02 0.  1.
         -1   -1    0    0    0  501 -0.00000000000E+00 -0.00000000000E+00 -0.22873538823E+00  0.22879090767E+00  0.50400000000E-02 0. -1.
         31    1    1    2    0    0 -0.56062517439E+00  0.13658139363E+01  0.22282269481E+02  0.22509370972E+02  0.28271010000E+01 0. -1.
        -31    1    1    2    0    0  0.56062517439E+00 -0.13658139363E+01  0.21957575544E+02  0.22188000634E+02  0.28271010000E+01 0.  1.
<mgrwt>
<rscale>  0 0.63789608E+01</rscale>
<asrwt>0</asrwt>
<pdfrwt beam="1">  1        1 0.36958914E+00 0.63789608E+01</pdfrwt>
<pdfrwt beam="2">  1       -1 0.48527179E+00 0.63789608E+01</pdfrwt>
<totfact> 0.17443430E-02</totfact>
</mgrwt>
</event>
<event>
 4    1  0.4231559E-004  0.7267111E+01  0.7818608E-02  0.2274879E+00
          1   -1    0    0  501    0  0.00000000000E+00  0.00000000000E+00  0.69700525690E+02  0.69700525872E+02  0.50400000000E-02 0. -1.
         -1   -1    0    0    0  501 -0.00000000000E+00 -0.00000000000E+00 -0.18938706113E+00  0.18945411193E+00  0.50400000000E-02 0.  1.
         31    1    1    2    0    0  0.18717324612E+01  0.57309957952E+00  0.46046792102E+02  0.46175008267E+02  0.28271010000E+01 0. -1.
        -31    1    1    2    0    0 -0.18717324612E+01 -0.57309957952E+00  0.23464346526E+02  0.23714971716E+02  0.28271010000E+01 0.  1.
<mgrwt>
<rscale>  0 0.72671114E+01</rscale>
<asrwt>0</asrwt>
<pdfrwt beam="1">  1        1 0.57789925E+00 0.72671114E+01</pdfrwt>
<pdfrwt beam="2">  1       -1 0.40278741E+00 0.72671114E+01</pdfrwt>
<totfact> 0.79362130E-03</totfact>
</mgrwt>
</event>
<event>
 4    1  0.4231559E-004  0.7804907E+01  0.7818608E-02  0.2226764E+00
         -1   -1    0    0    0  501 -0.00000000000E+00  0.00000000000E+00  0.46677230886E+02  0.46677231158E+02  0.50400000000E-02 0. -1.
          1   -1    0    0  501    0  0.00000000000E+00 -0.00000000000E+00 -0.32624521889E+00  0.32628414679E+00  0.50400000000E-02 0.  1.
         31    1    1    2    0    0  0.26142210326E+00  0.14309482501E+01  0.36803326945E+02  0.36940402390E+02  0.28271010000E+01 0. -1.
        -31    1    1    2    0    0 -0.26142210326E+00 -0.14309482501E+01  0.95476587220E+01  0.10063112915E+02  0.28271010000E+01 0.  1.
<mgrwt>
<rscale>  0 0.78049073E+01</rscale>
<asrwt>0</asrwt>
<pdfrwt beam="2">  1        1 0.69083182E+00 0.78049073E+01</pdfrwt>
<pdfrwt beam="1">  1       -1 0.38865795E+00 0.78049073E+01</pdfrwt>
<totfact> 0.25009477E-03</totfact>
</mgrwt>
</event>
<event>
 4    1  0.4231559E-004  0.6702010E+01  0.7818608E-02  0.2332127E+00
          1   -1    0    0  501    0  0.00000000000E+00  0.00000000000E+00  0.72731707761E+02  0.72731707936E+02  0.50400000000E-02 0.  1.
         -1   -1    0    0    0  501 -0.00000000000E+00 -0.00000000000E+00 -0.15435126100E+00  0.15443352412E+00  0.50400000000E-02 0. -1.
         31    1    1    2    0    0 -0.66679441068E+00 -0.10617114071E+01  0.50321096977E+02  0.50416040571E+02  0.28271010000E+01 0.  1.
        -31    1    1    2    0    0  0.66679441068E+00  0.10617114071E+01  0.22256259524E+02  0.22470100889E+02  0.28271010000E+01 0. -1.
<mgrwt>
<rscale>  0 0.67020102E+01</rscale>
<asrwt>0</asrwt>
<pdfrwt beam="1">  1        1 0.60267361E+00 0.67020102E+01</pdfrwt>
<pdfrwt beam="2">  1       -1 0.32849773E+00 0.67020102E+01</pdfrwt>
<totfact> 0.17147637E-02</totfact>
</mgrwt>
</event>
<event>
 4    1  0.4231559E-004  0.6002137E+01  0.7818608E-02  0.2415146E+00
          1   -1    0    0  501    0  0.00000000000E+00  0.00000000000E+00  0.49101328019E+02  0.49101328278E+02  0.50400000000E-02 0.  1.
         -1   -1    0    0    0  501 -0.00000000000E+00 -0.00000000000E+00 -0.18339011081E+00  0.18345935338E+00  0.50400000000E-02 0. -1.
         31    1    1    2    0    0 -0.12609103336E+00 -0.76935251441E-01  0.32637647326E+02  0.32760194459E+02  0.28271010000E+01 0.  1.
        -31    1    1    2    0    0  0.12609103336E+00  0.76935251441E-01  0.16280290583E+02  0.16524593172E+02  0.28271010000E+01 0. -1.
<mgrwt>
<rscale>  0 0.60021365E+01</rscale>
<asrwt>0</asrwt>
<pdfrwt beam="1">  1        1 0.40752111E+00 0.60021365E+01</pdfrwt>
<pdfrwt beam="2">  1       -1 0.38964222E+00 0.60021365E+01</pdfrwt>
<totfact> 0.52280617E-02</totfact>
</mgrwt>
</event>
<event>
 4    1  0.4231559E-004  0.6249163E+01  0.7818608E-02  0.2384081E+00
         -1   -1    0    0    0  501 -0.00000000000E+00  0.00000000000E+00  0.44503869155E+02  0.44503869440E+02  0.50400000000E-02 0. -1.
          1   -1    0    0  501    0  0.00000000000E+00 -0.00000000000E+00 -0.21934516200E+00  0.21940305762E+00  0.50400000000E-02 0.  1.
         31    1    1    2    0    0  0.18399425939E+00  0.11148467439E+01  0.17113338361E+02  0.17382047839E+02  0.28271010000E+01 0. -1.
        -31    1    1    2    0    0 -0.18399425939E+00 -0.11148467439E+01  0.27171185632E+02  0.27341224660E+02  0.28271010000E+01 0. -1.
<mgrwt>
<rscale>  0 0.62491630E+01</rscale>
<asrwt>0</asrwt>
<pdfrwt beam="2">  1        1 0.46545456E+00 0.62491630E+01</pdfrwt>
<pdfrwt beam="1">  1       -1 0.36980331E+00 0.62491630E+01</pdfrwt>
<totfact> 0.40155757E-02</totfact>
</mgrwt>
</event>
<event>
 4    1  0.4231559E-004  0.6319339E+01  0.7818608E-02  0.2375626E+00
         -1   -1    0    0    0  501 -0.00000000000E+00  0.00000000000E+00  0.48840564952E+02  0.48840565212E+02  0.50400000000E-02 0. -1.
          1   -1    0    0  501    0  0.00000000000E+00 -0.00000000000E+00 -0.20437890476E+00  0.20444103872E+00  0.50400000000E-02 0.  1.
         31    1    1    2    0    0 -0.10299677102E+01 -0.90109395091E+00  0.21649726861E+02  0.21876379431E+02  0.28271010000E+01 0. -1.
        -31    1    1    2    0    0  0.10299677102E+01  0.90109395091E+00  0.26986459186E+02  0.27168626820E+02  0.28271010000E+01 0. -1.
<mgrwt>
<rscale>  0 0.63193390E+01</rscale>
<asrwt>0</asrwt>
<pdfrwt beam="2">  1        1 0.43402593E+00 0.63193390E+01</pdfrwt>
<pdfrwt beam="1">  1       -1 0.40553843E+00 0.63193390E+01</pdfrwt>
<totfact> 0.32520867E-02</totfact>
</mgrwt>
</event>
<event>
 4    1  0.4231559E-004  0.5812703E+01  0.7818608E-02  0.2440457E+00
         -1   -1    0    0    0  501 -0.00000000000E+00  0.00000000000E+00  0.23301053275E+02  0.23301053821E+02  0.50400000000E-02 0.  1.
          1   -1    0    0  501    0  0.00000000000E+00 -0.00000000000E+00 -0.36249250636E+00  0.36252754208E+00  0.50400000000E-02 0. -1.
         31    1    1    2    0    0 -0.51290661965E+00  0.27912381019E+00  0.12840158905E+02  0.13160667311E+02  0.28271010000E+01 0.  1.
        -31    1    1    2    0    0  0.51290661965E+00 -0.27912381019E+00  0.10098401864E+02  0.10502914052E+02  0.28271010000E+01 0.  1.
<mgrwt>
<rscale>  0 0.58127027E+01</rscale>
<asrwt>0</asrwt>
<pdfrwt beam="2">  1        1 0.76110209E+00 0.58127027E+01</pdfrwt>
<pdfrwt beam="1">  1       -1 0.19566705E+00 0.58127027E+01</pdfrwt>
<totfact> 0.13671174E-02</totfact>
</mgrwt>
</event>
<event>
 4    1  0.4231559E-004  0.5711187E+01  0.7818608E-02  0.2454600E+00
          1   -1    0    0  501    0  0.00000000000E+00  0.00000000000E+00  0.53707221717E+02  0.53707221954E+02  0.50400000000E-02 0. -1.
         -1   -1    0    0    0  501 -0.00000000000E+00 -0.00000000000E+00 -0.15178880898E+00  0.15187246008E+00  0.50400000000E-02 0.  1.
         31    1    1    2    0    0 -0.11370290232E+00 -0.37688980597E+00  0.27563332315E+02  0.27710733708E+02  0.28271010000E+01 0.  1.
        -31    1    1    2    0    0  0.11370290232E+00  0.37688980597E+00  0.25992100593E+02  0.26148360706E+02  0.28271010000E+01 0. -1.
<mgrwt>
<rscale>  0 0.57111870E+01</rscale>
<asrwt>0</asrwt>
<pdfrwt beam="1">  1        1 0.44534468E+00 0.57111870E+01</pdfrwt>
<pdfrwt beam="2">  1       -1 0.32282033E+00 0.57111870E+01</pdfrwt>
<totfact> 0.92211850E-02</totfact>
</mgrwt>
</event>
<event>
 4    1  0.4231559E-004  0.6013803E+01  0.7818608E-02  0.2413631E+00
         -1   -1    0    0    0  501 -0.00000000000E+00  0.00000000000E+00  0.29811560954E+02  0.29811561380E+02  0.50400000000E-02 0. -1.
          1   -1    0    0  501    0  0.00000000000E+00 -0.00000000000E+00 -0.30326551587E+00  0.30330739311E+00  0.50400000000E-02 0.  1.
         31    1    1    2    0    0 -0.90898167699E+00  0.20860341848E+00  0.16873930790E+02  0.17134520811E+02  0.28271010000E+01 0. -1.
        -31    1    1    2    0    0  0.90898167699E+00 -0.20860341848E+00  0.12634364648E+02  0.12980347962E+02  0.28271010000E+01 0. -1.
<mgrwt>
<rscale>  0 0.60138026E+01</rscale>
<asrwt>0</asrwt>
<pdfrwt beam="2">  1        1 0.64015409E+00 0.60138026E+01</pdfrwt>
<pdfrwt beam="1">  1       -1 0.24901081E+00 0.60138026E+01</pdfrwt>
<totfact> 0.32772130E-02</totfact>
</mgrwt>
</event>
<event>
 4    1  0.4231559E-004  0.6966147E+01  0.7818608E-02  0.2304420E+00
          1   -1    0    0  501    0  0.00000000000E+00  0.00000000000E+00  0.81193954142E+02  0.81193954298E+02  0.50400000000E-02 0.  1.
         -1   -1    0    0    0  501 -0.00000000000E+00 -0.00000000000E+00 -0.14937487251E+00  0.14945987468E+00  0.50400000000E-02 0. -1.
         31    1    1    2    0    0 -0.94245963489E+00  0.99350153223E-01  0.61544707005E+02  0.61616893471E+02  0.28271010000E+01 0.  1.
        -31    1    1    2    0    0  0.94245963489E+00 -0.99350153223E-01  0.19499872264E+02  0.19726520702E+02  0.28271010000E+01 0. -1.
<mgrwt>
<rscale>  0 0.69661467E+01</rscale>
<asrwt>0</asrwt>
<pdfrwt beam="1">  1        1 0.67260426E+00 0.69661467E+01</pdfrwt>
<pdfrwt beam="2">  1       -1 0.31800211E+00 0.69661467E+01</pdfrwt>
<totfact> 0.85640363E-03</totfact>
</mgrwt>
</event>
<event>
 4    1  0.4231559E-004  0.5931660E+01  0.7818608E-02  0.2424404E+00
         -1   -1    0    0    0  501 -0.00000000000E+00  0.00000000000E+00  0.46904599345E+02  0.46904599615E+02  0.50400000000E-02 0.  1.
          1   -1    0    0  501    0  0.00000000000E+00 -0.00000000000E+00 -0.18749857739E+00  0.18756630327E+00  0.50400000000E-02 0. -1.
         31    1    1    2    0    0  0.78101139122E+00 -0.24205037684E+00  0.20440672594E+02  0.20651444582E+02  0.28271010000E+01 0.  1.
        -31    1    1    2    0    0 -0.78101139122E+00  0.24205037684E+00  0.26276428174E+02  0.26440721337E+02  0.28271010000E+01 0.  1.
<mgrwt>
<rscale>  0 0.59316597E+01</rscale>
<asrwt>0</asrwt>
<pdfrwt beam="2">  1        1 0.39826391E+00 0.59316597E+01</pdfrwt>
<pdfrwt beam="1">  1       -1 0.38939098E+00 0.59316597E+01</pdfrwt>
<totfact> 0.57099445E-02</totfact>
</mgrwt>
</event>
<event>
 4    1  0.4231559E-004  0.6712497E+01  0.7818608E-02  0.2330992E+00
         -1   -1    0    0    0  501 -0.00000000000E+00  0.00000000000E+00  0.33185273784E+02  0.33185274167E+02  0.50400000000E-02 0.  1.
          1   -1    0    0  501    0  0.00000000000E+00 -0.00000000000E+00 -0.33942078322E+00  0.33945820020E+00  0.50400000000E-02 0. -1.
         31    1    1    2    0    0 -0.10322927214E+00 -0.17164412335E+01  0.19226361497E+02  0.19509031326E+02  0.28271010000E+01 0.  1.
        -31    1    1    2    0    0  0.10322927214E+00  0.17164412335E+01  0.13619491504E+02  0.14015701041E+02  0.28271010000E+01 0. -1.
<mgrwt>
<rscale>  0 0.67124974E+01</rscale>
<asrwt>0</asrwt>
<pdfrwt beam="2">  1        1 0.71642396E+00 0.67124974E+01</pdfrwt>
<pdfrwt beam="1">  1       -1 0.27720594E+00 0.67124974E+01</pdfrwt>
<totfact> 0.83010924E-03</totfact>
</mgrwt>
</event>
<event>
 4    1  0.4231559E-004  0.5922480E+01  0.7818608E-02  0.2425623E+00
         -1   -1    0    0    0  501 -0.00000000000E+00  0.00000000000E+00  0.71647227959E+02  0.71647228136E+02  0.50400000000E-02 0. -1.
          1   -1    0    0  501    0  0.00000000000E+00 -0.00000000000E+00 -0.12233845792E+00  0.12244223081E+00  0.50400000000E-02 0.  1.
         31    1    1    2    0    0  0.80741605977E+00 -0.29719603075E+00  0.38067938309E+02  0.38182465522E+02  0.28271010000E+01 0.  1.
        -31    1    1    2    0    0 -0.80741605977E+00  0.29719603075E+00  0.33456951192E+02  0.33587204845E+02  0.28271010000E+01 0. -1.
<mgrwt>
<rscale>  0 0.59224798E+01</rscale>
<asrwt>0</asrwt>
<pdfrwt beam="2">  1        1 0.26051539E+00 0.59224798E+01</pdfrwt>
<pdfrwt beam="1">  1       -1 0.59344185E+00 0.59224798E+01</pdfrwt>
<totfact> 0.94467839E-03</totfact>
</mgrwt>
</event>
<event>
 4    1  0.4231559E-004  0.5980042E+01  0.7818608E-02  0.2418028E+00
         -1   -1    0    0    0  501 -0.00000000000E+00  0.00000000000E+00  0.28505955988E+02  0.28505956434E+02  0.50400000000E-02 0.  1.
          1   -1    0    0  501    0  0.00000000000E+00 -0.00000000000E+00 -0.31360586723E+00  0.31364636386E+00  0.50400000000E-02 0. -1.
         31    1    1    2    0    0 -0.91062405381E+00  0.66791484659E-01  0.15723554859E+02  0.16001761614E+02  0.28271010000E+01 0.  1.
        -31    1    1    2    0    0  0.91062405381E+00 -0.66791484659E-01  0.12468795262E+02  0.12817841184E+02  0.28271010000E+01 0. -1.
<mgrwt>
<rscale>  0 0.59800418E+01</rscale>
<asrwt>0</asrwt>
<pdfrwt beam="2">  1        1 0.66143568E+00 0.59800418E+01</pdfrwt>
<pdfrwt beam="1">  1       -1 0.23830064E+00 0.59800418E+01</pdfrwt>
<totfact> 0.29381149E-02</totfact>
</mgrwt>
</event>
<event>
 4    1  0.4231559E-004  0.6362271E+01  0.7818608E-02  0.2370530E+00
         -1   -1    0    0    0  501 -0.00000000000E+00  0.00000000000E+00  0.73634934917E+02  0.73634935090E+02  0.50400000000E-02 0.  1.
          1   -1    0    0  501    0  0.00000000000E+00 -0.00000000000E+00 -0.13738326819E+00  0.13747568504E+00  0.50400000000E-02 0. -1.
         31    1    1    2    0    0 -0.21188899249E+00  0.98556485148E+00  0.24527487702E+02  0.24710450989E+02  0.28271010000E+01 0. -1.
        -31    1    1    2    0    0  0.21188899249E+00 -0.98556485148E+00  0.48970063947E+02  0.49061959786E+02  0.28271010000E+01 0.  1.
<mgrwt>
<rscale>  0 0.63622711E+01</rscale>
<asrwt>0</asrwt>
<pdfrwt beam="2">  1        1 0.29248091E+00 0.63622711E+01</pdfrwt>
<pdfrwt beam="1">  1       -1 0.61000191E+00 0.63622711E+01</pdfrwt>
<totfact> 0.59966307E-03</totfact>
</mgrwt>
</event>
<event>
 4    1  0.4231559E-004  0.6247945E+01  0.7818608E-02  0.2384229E+00
          1   -1    0    0  501    0  0.00000000000E+00  0.00000000000E+00  0.76186181708E+02  0.76186181875E+02  0.50400000000E-02 0. -1.
         -1   -1    0    0    0  501 -0.00000000000E+00 -0.00000000000E+00 -0.12804702116E+00  0.12814617134E+00  0.50400000000E-02 0.  1.
         31    1    1    2    0    0 -0.11773698482E+01  0.20992303709E+00  0.45113743212E+02  0.45218056063E+02  0.28271010000E+01 0. -1.
        -31    1    1    2    0    0  0.11773698482E+01 -0.20992303709E+00  0.30944391475E+02  0.31096271983E+02  0.28271010000E+01 0.  1.
<mgrwt>
<rscale>  0 0.62479447E+01</rscale>
<asrwt>0</asrwt>
<pdfrwt beam="1">  1        1 0.63102026E+00 0.62479447E+01</pdfrwt>
<pdfrwt beam="2">  1       -1 0.27266879E+00 0.62479447E+01</pdfrwt>
<totfact> 0.26391711E-02</totfact>
</mgrwt>
</event>
<event>
 4    1  0.4231559E-004  0.7112522E+01  0.7818608E-02  0.2289797E+00
         -1   -1    0    0    0  501 -0.00000000000E+00  0.00000000000E+00  0.39911226839E+02  0.39911227157E+02  0.50400000000E-02 0.  1.
          1   -1    0    0  501    0  0.00000000000E+00 -0.00000000000E+00 -0.31685768051E+00  0.31689776158E+00  0.50400000000E-02 0. -1.
         31    1    1    2    0    0  0.42476445144E+00 -0.18018285869E+01  0.13530852149E+02  0.13946450123E+02  0.28271010000E+01 0. -1.
        -31    1    1    2    0    0 -0.42476445144E+00  0.18018285869E+01  0.26063517009E+02  0.26281674796E+02  0.28271010000E+01 0. -1.
<mgrwt>
<rscale>  0 0.71125217E+01</rscale>
<asrwt>0</asrwt>
<pdfrwt beam="2">  1        1 0.67032372E+00 0.71125217E+01</pdfrwt>
<pdfrwt beam="1">  1       -1 0.33263428E+00 0.71125217E+01</pdfrwt>
<totfact> 0.72155945E-03</totfact>
</mgrwt>
</event>
<event>
 4    1  0.4231559E-004  0.5719056E+01  0.7818608E-02  0.2453489E+00
          1   -1    0    0  501    0  0.00000000000E+00  0.00000000000E+00  0.28132945103E+02  0.28132945555E+02  0.50400000000E-02 0.  1.
         -1   -1    0    0    0  501 -0.00000000000E+00 -0.00000000000E+00 -0.29062978723E+00  0.29067348490E+00  0.50400000000E-02 0. -1.
         31    1    1    2    0    0 -0.35159903296E+00  0.18172767575E+00  0.14749109913E+02  0.15022828965E+02  0.28271010000E+01 0.  1.
        -31    1    1    2    0    0  0.35159903296E+00 -0.18172767575E+00  0.13093205403E+02  0.13400790075E+02  0.28271010000E+01 0.  1.
<mgrwt>
<rscale>  0 0.57190556E+01</rscale>
<asrwt>0</asrwt>
<pdfrwt beam="1">  1        1 0.23502637E+00 0.57190556E+01</pdfrwt>
<pdfrwt beam="2">  1       -1 0.61338963E+00 0.57190556E+01</pdfrwt>
<totfact> 0.96313629E-03</totfact>
</mgrwt>
</event>
<event>
 4    1  0.4231559E-004  0.5703364E+01  0.7818608E-02  0.2455708E+00
          1   -1    0    0  501    0  0.00000000000E+00  0.00000000000E+00  0.20491471054E+02  0.20491471674E+02  0.50400000000E-02 0. -1.
         -1   -1    0    0    0  501 -0.00000000000E+00 -0.00000000000E+00 -0.39683575903E+00  0.39686776292E+00  0.50400000000E-02 0.  1.
         31    1    1    2    0    0 -0.33558401246E+00  0.22622271056E-01  0.10643081038E+02  0.11017295605E+02  0.28271010000E+01 0. -1.
        -31    1    1    2    0    0  0.33558401246E+00 -0.22622271056E-01  0.94515542570E+01  0.98710438320E+01  0.28271010000E+01 0. -1.
<mgrwt>
<rscale>  0 0.57033636E+01</rscale>
<asrwt>0</asrwt>
<pdfrwt beam="1">  1        1 0.17271941E+00 0.57033636E+01</pdfrwt>
<pdfrwt beam="2">  1       -1 0.83009037E+00 0.57033636E+01</pdfrwt>
<totfact> 0.43719646E-03</totfact>
</mgrwt>
</event>
<event>
 4    1  0.4231559E-004  0.6643218E+01  0.7818608E-02  0.2338540E+00
          1   -1    0    0  501    0  0.00000000000E+00  0.00000000000E+00  0.82262386414E+02  0.82262386569E+02  0.50400000000E-02 0. -1.
         -1   -1    0    0    0  501 -0.00000000000E+00 -0.00000000000E+00 -0.13407318013E+00  0.13416787704E+00  0.50400000000E-02 0.  1.
         31    1    1    2    0    0 -0.57173639115E+00 -0.92667011317E+00  0.24171381261E+02  0.24360496139E+02  0.28271010000E+01 0. -1.
        -31    1    1    2    0    0  0.57173639115E+00  0.92667011317E+00  0.57956931973E+02  0.58036058306E+02  0.28271010000E+01 0. -1.
<mgrwt>
<rscale>  0 0.66432183E+01</rscale>
<asrwt>0</asrwt>
<pdfrwt beam="1">  1        1 0.68131236E+00 0.66432183E+01</pdfrwt>
<pdfrwt beam="2">  1       -1 0.28550595E+00 0.66432183E+01</pdfrwt>
<totfact> 0.11909671E-02</totfact>
</mgrwt>
</event>
<event>
 4    1  0.4231559E-004  0.6084048E+01  0.7818608E-02  0.2404611E+00
         -1   -1    0    0    0  501 -0.00000000000E+00  0.00000000000E+00  0.26246502247E+02  0.26246502731E+02  0.50400000000E-02 0. -1.
          1   -1    0    0  501    0  0.00000000000E+00 -0.00000000000E+00 -0.35255833158E+00  0.35259435442E+00  0.50400000000E-02 0.  1.
         31    1    1    2    0    0  0.28575999667E+00 -0.10815951515E+01  0.13382010919E+02  0.13723054439E+02  0.28271010000E+01 0.  1.
        -31    1    1    2    0    0 -0.28575999667E+00  0.10815951515E+01  0.12511932996E+02  0.12876042646E+02  0.28271010000E+01 0. -1.
<mgrwt>
<rscale>  0 0.60840475E+01</rscale>
<asrwt>0</asrwt>
<pdfrwt beam="2">  1        1 0.74179767E+00 0.60840475E+01</pdfrwt>
<pdfrwt beam="1">  1       -1 0.21993995E+00 0.60840475E+01</pdfrwt>
<totfact> 0.12832040E-02</totfact>
</mgrwt>
</event>
<event>
 4    1  0.4231559E-004  0.5964466E+01  0.7818608E-02  0.2420071E+00
          1   -1    0    0  501    0  0.00000000000E+00  0.00000000000E+00  0.74612385026E+02  0.74612385196E+02  0.50400000000E-02 0.  1.
         -1   -1    0    0    0  501 -0.00000000000E+00 -0.00000000000E+00 -0.11914543575E+00  0.11925198724E+00  0.50400000000E-02 0. -1.
         31    1    1    2    0    0 -0.20361305740E+00 -0.83146962441E+00  0.32104756993E+02  0.32240358585E+02  0.28271010000E+01 0. -1.
        -31    1    1    2    0    0  0.20361305740E+00  0.83146962441E+00  0.42388482597E+02  0.42491278599E+02  0.28271010000E+01 0.  1.
<mgrwt>
<rscale>  0 0.59644657E+01</rscale>
<asrwt>0</asrwt>
<pdfrwt beam="1">  1        1 0.61793346E+00 0.59644657E+01</pdfrwt>
<pdfrwt beam="2">  1       -1 0.25374983E+00 0.59644657E+01</pdfrwt>
<totfact> 0.39792911E-02</totfact>
</mgrwt>
</event>
<event>
 4    1  0.4231559E-004  0.6701577E+01  0.7818608E-02  0.2332173E+00
         -1   -1    0    0    0  501 -0.00000000000E+00  0.00000000000E+00  0.55567939844E+02  0.55567940073E+02  0.50400000000E-02 0. -1.
          1   -1    0    0  501    0  0.00000000000E+00 -0.00000000000E+00 -0.20202343045E+00  0.20208628863E+00  0.50400000000E-02 0.  1.
         31    1    1    2    0    0 -0.10303563264E+01  0.12698807608E+01  0.21449543806E+02  0.21696766138E+02  0.28271010000E+01 0.  1.
        -31    1    1    2    0    0  0.10303563264E+01 -0.12698807608E+01  0.33916372608E+02  0.34073260224E+02  0.28271010000E+01 0. -1.
<mgrwt>
<rscale>  0 0.67015774E+01</rscale>
<asrwt>0</asrwt>
<pdfrwt beam="2">  1        1 0.42925997E+00 0.67015774E+01</pdfrwt>
<pdfrwt beam="1">  1       -1 0.46114560E+00 0.67015774E+01</pdfrwt>
<totfact> 0.14697124E-02</totfact>
</mgrwt>
</event>
<event>
 4    1  0.4231559E-004  0.5933490E+01  0.7818608E-02  0.2424161E+00
         -1   -1    0    0    0  501 -0.00000000000E+00  0.00000000000E+00  0.35120694676E+02  0.35120695038E+02  0.50400000000E-02 0.  1.
          1   -1    0    0  501    0  0.00000000000E+00 -0.00000000000E+00 -0.25058371033E+00  0.25063439007E+00  0.50400000000E-02 0. -1.
         31    1    1    2    0    0 -0.40021844079E+00  0.41277897277E+00  0.13311336333E+02  0.13620379448E+02  0.28271010000E+01 0. -1.
        -31    1    1    2    0    0  0.40021844079E+00 -0.41277897277E+00  0.21558774633E+02  0.21750949980E+02  0.28271010000E+01 0.  1.
<mgrwt>
<rscale>  0 0.59334903E+01</rscale>
<asrwt>0</asrwt>
<pdfrwt beam="2">  1        1 0.53056213E+00 0.59334903E+01</pdfrwt>
<pdfrwt beam="1">  1       -1 0.29247490E+00 0.59334903E+01</pdfrwt>
<totfact> 0.60348451E-02</totfact>
</mgrwt>
</event>
<event>
 4    1  0.4231559E-004  0.5818347E+01  0.7818608E-02  0.2439683E+00
          1   -1    0    0  501    0  0.00000000000E+00  0.00000000000E+00  0.51382456339E+02  0.51382456586E+02  0.50400000000E-02 0. -1.
         -1   -1    0    0    0  501 -0.00000000000E+00 -0.00000000000E+00 -0.16467285517E+00  0.16474996458E+00  0.50400000000E-02 0.  1.
         31    1    1    2    0    0 -0.67442013205E+00 -0.23869538922E-01  0.26707503810E+02  0.26865194436E+02  0.28271010000E+01 0. -1.
        -31    1    1    2    0    0  0.67442013205E+00  0.23869538922E-01  0.24510279674E+02  0.24682012115E+02  0.28271010000E+01 0. -1.
<mgrwt>
<rscale>  0 0.58183467E+01</rscale>
<asrwt>0</asrwt>
<pdfrwt beam="1">  1        1 0.42622837E+00 0.58183467E+01</pdfrwt>
<pdfrwt beam="2">  1       -1 0.35007510E+00 0.58183467E+01</pdfrwt>
<totfact> 0.76274891E-02</totfact>
</mgrwt>
</event>
<event>
 4    1  0.4231559E-004  0.6182126E+01  0.7818608E-02  0.2392306E+00
          1   -1    0    0  501    0  0.00000000000E+00  0.00000000000E+00  0.42338739338E+02  0.42338739638E+02  0.50400000000E-02 0.  1.
         -1   -1    0    0    0  501 -0.00000000000E+00 -0.00000000000E+00 -0.22564360747E+00  0.22569988744E+00  0.50400000000E-02 0. -1.
         31    1    1    2    0    0 -0.56743966479E+00 -0.23350443536E+00  0.28553569611E+02  0.28699744767E+02  0.28271010000E+01 0.  1.
        -31    1    1    2    0    0  0.56743966479E+00  0.23350443536E+00  0.13559526119E+02  0.13864694758E+02  0.28271010000E+01 0. -1.
<mgrwt>
<rscale>  0 0.61821259E+01</rscale>
<asrwt>0</asrwt>
<pdfrwt beam="1">  1        1 0.35195257E+00 0.61821259E+01</pdfrwt>
<pdfrwt beam="2">  1       -1 0.47862561E+00 0.61821259E+01</pdfrwt>
<totfact> 0.22716288E-02</totfact>
</mgrwt>
</event>
<event>
 4    1  0.4231559E-004  0.6075088E+01  0.7818608E-02  0.2405752E+00
         -1   -1    0    0    0  501 -0.00000000000E+00  0.00000000000E+00  0.37271182371E+02  0.37271182712E+02  0.50400000000E-02 0. -1.
          1   -1    0    0  501    0  0.00000000000E+00 -0.00000000000E+00 -0.24752918636E+00  0.24758049136E+00  0.50400000000E-02 0.  1.
         31    1    1    2    0    0  0.29837592702E+00  0.65113125808E+00  0.13267182905E+02  0.13583947968E+02  0.28271010000E+01 0.  1.
        -31    1    1    2    0    0 -0.29837592702E+00 -0.65113125808E+00  0.23756470280E+02  0.23934815235E+02  0.28271010000E+01 0. -1.
<mgrwt>
<rscale>  0 0.60750882E+01</rscale>
<asrwt>0</asrwt>
<pdfrwt beam="2">  1        1 0.52435309E+00 0.60750882E+01</pdfrwt>
<pdfrwt beam="1">  1       -1 0.31023138E+00 0.60750882E+01</pdfrwt>
<totfact> 0.50653691E-02</totfact>
</mgrwt>
</event>
<event>
 4    1  0.4231559E-004  0.6358008E+01  0.7818608E-02  0.2371034E+00
         -1   -1    0    0    0  501 -0.00000000000E+00  0.00000000000E+00  0.37065053346E+02  0.37065053688E+02  0.50400000000E-02 0.  1.
          1   -1    0    0  501    0  0.00000000000E+00 -0.00000000000E+00 -0.27263387923E+00  0.27268046080E+00  0.50400000000E-02 0. -1.
         31    1    1    2    0    0  0.14533618207E+01 -0.25689631892E-01  0.18247100554E+02  0.18521935624E+02  0.28271010000E+01 0.  1.
        -31    1    1    2    0    0 -0.14533618207E+01  0.25689631892E-01  0.18545318912E+02  0.18815798526E+02  0.28271010000E+01 0.  1.
<mgrwt>
<rscale>  0 0.63580076E+01</rscale>
<asrwt>0</asrwt>
<pdfrwt beam="2">  1        1 0.57711359E+00 0.63580076E+01</pdfrwt>
<pdfrwt beam="1">  1       -1 0.30873451E+00 0.63580076E+01</pdfrwt>
<totfact> 0.29742353E-02</totfact>
</mgrwt>
</event>
<event>
 4    1  0.4231559E-004  0.6470343E+01  0.7818608E-02  0.2357952E+00
         -1   -1    0    0    0  501 -0.00000000000E+00  0.00000000000E+00  0.31243362597E+02  0.31243363003E+02  0.50400000000E-02 0. -1.
          1   -1    0    0  501    0  0.00000000000E+00 -0.00000000000E+00 -0.33497447171E+00  0.33501238529E+00  0.50400000000E-02 0.  1.
         31    1    1    2    0    0 -0.10932360450E+01 -0.88024680944E+00  0.18918421416E+02  0.19179915756E+02  0.28271010000E+01 0. -1.
        -31    1    1    2    0    0  0.10932360450E+01  0.88024680944E+00  0.11989966709E+02  0.12398459632E+02  0.28271010000E+01 0.  1.
<mgrwt>
<rscale>  0 0.64703428E+01</rscale>
<asrwt>0</asrwt>
<pdfrwt beam="2">  1        1 0.70669491E+00 0.64703428E+01</pdfrwt>
<pdfrwt beam="1">  1       -1 0.26111210E+00 0.64703428E+01</pdfrwt>
<totfact> 0.11856190E-02</totfact>
</mgrwt>
</event>
<event>
 4    1  0.4231559E-004  0.6685320E+01  0.7818608E-02  0.2333938E+00
          1   -1    0    0  501    0  0.00000000000E+00  0.00000000000E+00  0.48345265540E+02  0.48345265803E+02  0.50400000000E-02 0. -1.
         -1   -1    0    0    0  501 -0.00000000000E+00 -0.00000000000E+00 -0.23108851894E+00  0.23114347316E+00  0.50400000000E-02 0.  1.
         31    1    1    2    0    0 -0.39564434439E-01  0.99458153810E+00  0.13303905099E+02  0.13637343903E+02  0.28271010000E+01 0.  1.
        -31    1    1    2    0    0  0.39564434439E-01 -0.99458153810E+00  0.34810271922E+02  0.34939065373E+02  0.28271010000E+01 0. -1.
<mgrwt>
<rscale>  0 0.66853203E+01</rscale>
<asrwt>0</asrwt>
<pdfrwt beam="1">  1        1 0.40166374E+00 0.66853203E+01</pdfrwt>
<pdfrwt beam="2">  1       -1 0.49044035E+00 0.66853203E+01</pdfrwt>
<totfact> 0.11982000E-02</totfact>
</mgrwt>
</event>
<event>
 4    1  0.4231559E-004  0.6572817E+01  0.7818608E-02  0.2346343E+00
          1   -1    0    0  501    0  0.00000000000E+00  0.00000000000E+00  0.59491880502E+02  0.59491880715E+02  0.50400000000E-02 0. -1.
         -1   -1    0    0    0  501 -0.00000000000E+00 -0.00000000000E+00 -0.18151028713E+00  0.18158024654E+00  0.50400000000E-02 0.  1.
         31    1    1    2    0    0  0.12974318177E+01 -0.59020603928E+00  0.37654395289E+02  0.37787268453E+02  0.28271010000E+01 0.  1.
        -31    1    1    2    0    0 -0.12974318177E+01  0.59020603928E+00  0.21655974925E+02  0.21886192509E+02  0.28271010000E+01 0. -1.
<mgrwt>
<rscale>  0 0.65728174E+01</rscale>
<asrwt>0</asrwt>
<pdfrwt beam="1">  1        1 0.49342193E+00 0.65728174E+01</pdfrwt>
<pdfrwt beam="2">  1       -1 0.38591270E+00 0.65728174E+01</pdfrwt>
<totfact> 0.24347802E-02</totfact>
</mgrwt>
</event>
<event>
 4    1  0.4231559E-004  0.6994951E+01  0.7818608E-02  0.2301503E+00
          1   -1    0    0  501    0  0.00000000000E+00  0.00000000000E+00  0.62402259097E+02  0.62402259301E+02  0.50400000000E-02 0.  1.
         -1   -1    0    0    0  501 -0.00000000000E+00 -0.00000000000E+00 -0.19599133635E+00  0.19605612850E+00  0.50400000000E-02 0. -1.
         31    1    1    2    0    0 -0.12528183307E+01 -0.11667668446E+00  0.45689485552E+02  0.45794156366E+02  0.28271010000E+01 0.  1.
        -31    1    1    2    0    0  0.12528183307E+01  0.11667668446E+00  0.16516782209E+02  0.16804159063E+02  0.28271010000E+01 0. -1.
<mgrwt>
<rscale>  0 0.69949515E+01</rscale>
<asrwt>0</asrwt>
<pdfrwt beam="1">  1        1 0.51760667E+00 0.69949515E+01</pdfrwt>
<pdfrwt beam="2">  1       -1 0.41665244E+00 0.69949515E+01</pdfrwt>
<totfact> 0.12218040E-02</totfact>
</mgrwt>
</event>
<event>
 4    1  0.4231559E-004  0.6022349E+01  0.7818608E-02  0.2412524E+00
          1   -1    0    0  501    0  0.00000000000E+00  0.00000000000E+00  0.60187450555E+02  0.60187450766E+02  0.50400000000E-02 0. -1.
         -1   -1    0    0    0  501 -0.00000000000E+00 -0.00000000000E+00 -0.15060650263E+00  0.15069081005E+00  0.50400000000E-02 0.  1.
         31    1    1    2    0    0  0.25996787280E+00 -0.61032844304E+00  0.22037158595E+02  0.22227661665E+02  0.28271010000E+01 0. -1.
        -31    1    1    2    0    0 -0.25996787280E+00  0.61032844304E+00  0.37999685458E+02  0.38110479911E+02  0.28271010000E+01 0. -1.
<mgrwt>
<rscale>  0 0.60223488E+01</rscale>
<asrwt>0</asrwt>
<pdfrwt beam="1">  1        1 0.49891797E+00 0.60223488E+01</pdfrwt>
<pdfrwt beam="2">  1       -1 0.32041073E+00 0.60223488E+01</pdfrwt>
<totfact> 0.56960419E-02</totfact>
</mgrwt>
</event>
<event>
 4    1  0.4231559E-004  0.6540668E+01  0.7818608E-02  0.2349953E+00
         -1   -1    0    0    0  501 -0.00000000000E+00  0.00000000000E+00  0.41784398856E+02  0.41784399160E+02  0.50400000000E-02 0.  1.
          1   -1    0    0  501    0  0.00000000000E+00 -0.00000000000E+00 -0.25593366494E+00  0.25598328549E+00  0.50400000000E-02 0. -1.
         31    1    1    2    0    0 -0.16201495157E+01 -0.25414650847E+00  0.20028320523E+02  0.20293240203E+02  0.28271010000E+01 0.  1.
        -31    1    1    2    0    0  0.16201495157E+01  0.25414650847E+00  0.21500144668E+02  0.21747142242E+02  0.28271010000E+01 0.  1.
<mgrwt>
<rscale>  0 0.65406678E+01</rscale>
<asrwt>0</asrwt>
<pdfrwt beam="2">  1        1 0.54243123E+00 0.65406678E+01</pdfrwt>
<pdfrwt beam="1">  1       -1 0.34761930E+00 0.65406678E+01</pdfrwt>
<totfact> 0.25317182E-02</totfact>
</mgrwt>
</event>
<event>
 4    1  0.4231559E-004  0.5984566E+01  0.7818608E-02  0.2417437E+00
          1   -1    0    0  501    0  0.00000000000E+00  0.00000000000E+00  0.37139709100E+02  0.37139709441E+02  0.50400000000E-02 0. -1.
         -1   -1    0    0    0  501 -0.00000000000E+00 -0.00000000000E+00 -0.24105646465E+00  0.24110914696E+00  0.50400000000E-02 0.  1.
         31    1    1    2    0    0 -0.25727123903E+00 -0.35700755383E+00  0.23921852923E+02  0.24092347130E+02  0.28271010000E+01 0. -1.
        -31    1    1    2    0    0  0.25727123903E+00  0.35700755383E+00  0.12976799712E+02  0.13288471458E+02  0.28271010000E+01 0.  1.
<mgrwt>
<rscale>  0 0.59845662E+01</rscale>
<asrwt>0</asrwt>
<pdfrwt beam="1">  1        1 0.30909076E+00 0.59845662E+01</pdfrwt>
<pdfrwt beam="2">  1       -1 0.51072098E+00 0.59845662E+01</pdfrwt>
<totfact> 0.20024546E-02</totfact>
</mgrwt>
</event>
<event>
 4    1  0.4231559E-004  0.5814270E+01  0.7818608E-02  0.2440242E+00
         -1   -1    0    0    0  501 -0.00000000000E+00  0.00000000000E+00  0.52301676227E+02  0.52301676469E+02  0.50400000000E-02 0.  1.
          1   -1    0    0  501    0  0.00000000000E+00 -0.00000000000E+00 -0.16155058063E+00  0.16162917961E+00  0.50400000000E-02 0. -1.
         31    1    1    2    0    0  0.77577862241E-01 -0.86423456131E-01  0.32092307834E+02  0.32216800113E+02  0.28271010000E+01 0.  1.
        -31    1    1    2    0    0 -0.77577862241E-01  0.86423456131E-01  0.20047817811E+02  0.20246505536E+02  0.28271010000E+01 0. -1.
<mgrwt>
<rscale>  0 0.58142701E+01</rscale>
<asrwt>0</asrwt>
<pdfrwt beam="2">  1        1 0.34348037E+00 0.58142701E+01</pdfrwt>
<pdfrwt beam="1">  1       -1 0.43380332E+00 0.58142701E+01</pdfrwt>
<totfact> 0.48863075E-02</totfact>
</mgrwt>
</event>
<event>
 4    1  0.4231559E-004  0.7606087E+01  0.7818608E-02  0.2243908E+00
          1   -1    0    0  501    0  0.00000000000E+00  0.00000000000E+00  0.75879312965E+02  0.75879313133E+02  0.50400000000E-02 0.  1.
         -1   -1    0    0    0  501 -0.00000000000E+00 -0.00000000000E+00 -0.19057365726E+00  0.19064029071E+00  0.50400000000E-02 0. -1.
         31    1    1    2    0    0 -0.94174789052E+00 -0.14839431076E+01  0.19452875403E+02  0.19735648906E+02  0.28271010000E+01 0. -1.
        -31    1    1    2    0    0  0.94174789052E+00  0.14839431076E+01  0.56235863905E+02  0.56334304518E+02  0.28271010000E+01 0.  1.
<mgrwt>
<rscale>  0 0.76060868E+01</rscale>
<asrwt>0</asrwt>
<pdfrwt beam="1">  1        1 0.62899960E+00 0.76060868E+01</pdfrwt>
<pdfrwt beam="2">  1       -1 0.40539330E+00 0.76060868E+01</pdfrwt>
<totfact> 0.42642259E-03</totfact>
</mgrwt>
</event>
<event>
 4    1  0.4231559E-004  0.5742567E+01  0.7818608E-02  0.2450183E+00
          1   -1    0    0  501    0  0.00000000000E+00  0.00000000000E+00  0.53848113779E+02  0.53848114015E+02  0.50400000000E-02 0.  1.
         -1   -1    0    0    0  501 -0.00000000000E+00 -0.00000000000E+00 -0.15306055216E+00  0.15314350861E+00  0.50400000000E-02 0. -1.
         31    1    1    2    0    0  0.38588497865E+00 -0.26154027039E+00  0.28593110869E+02  0.28736315000E+02  0.28271010000E+01 0.  1.
        -31    1    1    2    0    0 -0.38588497865E+00  0.26154027039E+00  0.25101942357E+02  0.25264942523E+02  0.28271010000E+01 0. -1.
<mgrwt>
<rscale>  0 0.57425668E+01</rscale>
<asrwt>0</asrwt>
<pdfrwt beam="1">  1        1 0.44652018E+00 0.57425668E+01</pdfrwt>
<pdfrwt beam="2">  1       -1 0.32551829E+00 0.57425668E+01</pdfrwt>
<totfact> 0.87967868E-02</totfact>
</mgrwt>
</event>
<event>
 4    1  0.4231559E-004  0.7152616E+01  0.7818608E-02  0.2285877E+00
          1   -1    0    0  501    0  0.00000000000E+00  0.00000000000E+00  0.72772565633E+02  0.72772565808E+02  0.50400000000E-02 0.  1.
         -1   -1    0    0    0  501 -0.00000000000E+00 -0.00000000000E+00 -0.17571643087E+00  0.17578869610E+00  0.50400000000E-02 0. -1.
         31    1    1    2    0    0 -0.89625625954E-01 -0.51640089613E+00  0.57988102435E+02  0.58059342286E+02  0.28271010000E+01 0.  1.
        -31    1    1    2    0    0  0.89625625954E-01  0.51640089613E+00  0.14608746767E+02  0.14889012217E+02  0.28271010000E+01 0. -1.
<mgrwt>
<rscale>  0 0.71526157E+01</rscale>
<asrwt>0</asrwt>
<pdfrwt beam="1">  1        1 0.60318803E+00 0.71526157E+01</pdfrwt>
<pdfrwt beam="2">  1       -1 0.37383628E+00 0.71526157E+01</pdfrwt>
<totfact> 0.90890521E-03</totfact>
</mgrwt>
</event>
<event>
 4    1  0.4231559E-004  0.6184423E+01  0.7818608E-02  0.2392021E+00
          1   -1    0    0  501    0  0.00000000000E+00  0.00000000000E+00  0.62357083906E+02  0.62357084110E+02  0.50400000000E-02 0. -1.
         -1   -1    0    0    0  501 -0.00000000000E+00 -0.00000000000E+00 -0.15329738484E+00  0.15338021319E+00  0.50400000000E-02 0.  1.
         31    1    1    2    0    0  0.22395513794E-02 -0.11205635252E+01  0.25441517474E+02  0.25622626311E+02  0.28271010000E+01 0.  1.
        -31    1    1    2    0    0 -0.22395513794E-02  0.11205635252E+01  0.36762269047E+02  0.36887838012E+02  0.28271010000E+01 0. -1.
<mgrwt>
<rscale>  0 0.61844234E+01</rscale>
<asrwt>0</asrwt>
<pdfrwt beam="1">  1        1 0.51688026E+00 0.61844234E+01</pdfrwt>
<pdfrwt beam="2">  1       -1 0.32614661E+00 0.61844234E+01</pdfrwt>
<totfact> 0.44082748E-02</totfact>
</mgrwt>
</event>
<event>
 4    1  0.4231559E-004  0.7363272E+01  0.7818608E-02  0.2265857E+00
          1   -1    0    0  501    0  0.00000000000E+00  0.00000000000E+00  0.47935730465E+02  0.47935730730E+02  0.50400000000E-02 0.  1.
         -1   -1    0    0    0  501 -0.00000000000E+00 -0.00000000000E+00 -0.28274015837E+00  0.28278507520E+00  0.50400000000E-02 0. -1.
         31    1    1    2    0    0 -0.16225333164E+01 -0.16272088856E+01  0.20351939730E+02  0.20675453416E+02  0.28271010000E+01 0. -1.
        -31    1    1    2    0    0  0.16225333164E+01  0.16272088856E+01  0.27301050577E+02  0.27543062389E+02  0.28271010000E+01 0. -1.
<mgrwt>
<rscale>  0 0.73632725E+01</rscale>
<asrwt>0</asrwt>
<pdfrwt beam="1">  1        1 0.39870443E+00 0.73632725E+01</pdfrwt>
<pdfrwt beam="2">  1       -1 0.59937009E+00 0.73632725E+01</pdfrwt>
<totfact> 0.25760622E-03</totfact>
</mgrwt>
</event>
<event>
 4    1  0.4231559E-004  0.6852381E+01  0.7818608E-02  0.2316138E+00
         -1   -1    0    0    0  501 -0.00000000000E+00  0.00000000000E+00  0.64075225318E+02  0.64075225516E+02  0.50400000000E-02 0.  1.
          1   -1    0    0  501    0  0.00000000000E+00 -0.00000000000E+00 -0.18316823773E+00  0.18323756415E+00  0.50400000000E-02 0. -1.
         31    1    1    2    0    0  0.18604686409E+01 -0.16507332983E+00  0.36706337604E+02  0.36862397007E+02  0.28271010000E+01 0.  1.
        -31    1    1    2    0    0 -0.18604686409E+01  0.16507332983E+00  0.27185719476E+02  0.27396066073E+02  0.28271010000E+01 0. -1.
<mgrwt>
<rscale>  0 0.68523806E+01</rscale>
<asrwt>0</asrwt>
<pdfrwt beam="2">  1        1 0.38951105E+00 0.68523806E+01</pdfrwt>
<pdfrwt beam="1">  1       -1 0.53133393E+00 0.68523806E+01</pdfrwt>
<totfact> 0.70316680E-03</totfact>
</mgrwt>
</event>
<event>
 4    1  0.4231559E-004  0.6119370E+01  0.7818608E-02  0.2400142E+00
         -1   -1    0    0    0  501 -0.00000000000E+00  0.00000000000E+00  0.42352519402E+02  0.42352519702E+02  0.50400000000E-02 0. -1.
          1   -1    0    0  501    0  0.00000000000E+00 -0.00000000000E+00 -0.22101264219E+00  0.22107010112E+00  0.50400000000E-02 0.  1.
         31    1    1    2    0    0 -0.10032226569E+01  0.24722342310E+00  0.24886486851E+02  0.25067853976E+02  0.28271010000E+01 0. -1.
        -31    1    1    2    0    0  0.10032226569E+01 -0.24722342310E+00  0.17245019909E+02  0.17505735827E+02  0.28271010000E+01 0.  1.
<mgrwt>
<rscale>  0 0.61193698E+01</rscale>
<asrwt>0</asrwt>
<pdfrwt beam="2">  1        1 0.46885688E+00 0.61193698E+01</pdfrwt>
<pdfrwt beam="1">  1       -1 0.35202823E+00 0.61193698E+01</pdfrwt>
<totfact> 0.49702194E-02</totfact>
</mgrwt>
</event>
<event>
 4    1  0.4231559E-004  0.6795590E+01  0.7818608E-02  0.2322108E+00
          1   -1    0    0  501    0  0.00000000000E+00  0.00000000000E+00  0.81157017131E+02  0.81157017287E+02  0.50400000000E-02 0.  1.
         -1   -1    0    0    0  501 -0.00000000000E+00 -0.00000000000E+00 -0.14221042866E+00  0.14229971054E+00  0.50400000000E-02 0. -1.
         31    1    1    2    0    0  0.42323423620E+00 -0.18358075797E+01  0.41183431239E+02  0.41323320599E+02  0.28271010000E+01 0. -1.
        -31    1    1    2    0    0 -0.42323423620E+00  0.18358075797E+01  0.39831375463E+02  0.39975996399E+02  0.28271010000E+01 0.  1.
<mgrwt>
<rscale>  0 0.67955897E+01</rscale>
<asrwt>0</asrwt>
<pdfrwt beam="1">  1        1 0.67223964E+00 0.67955897E+01</pdfrwt>
<pdfrwt beam="2">  1       -1 0.30278515E+00 0.67955897E+01</pdfrwt>
<totfact> 0.10584218E-02</totfact>
</mgrwt>
</event>
<event>
 4    1  0.4231559E-004  0.6320758E+01  0.7818608E-02  0.2375457E+00
          1   -1    0    0  501    0  0.00000000000E+00  0.00000000000E+00  0.65474569343E+02  0.65474569537E+02  0.50400000000E-02 0. -1.
         -1   -1    0    0    0  501 -0.00000000000E+00 -0.00000000000E+00 -0.15250587542E+00  0.15258913342E+00  0.50400000000E-02 0.  1.
         31    1    1    2    0    0  0.10095633041E+01  0.92374483758E+00  0.36302008887E+02  0.36437629889E+02  0.28271010000E+01 0. -1.
        -31    1    1    2    0    0 -0.10095633041E+01 -0.92374483758E+00  0.29020054581E+02  0.29189528782E+02  0.28271010000E+01 0.  1.
<mgrwt>
<rscale>  0 0.63207578E+01</rscale>
<asrwt>0</asrwt>
<pdfrwt beam="1">  1        1 0.54265126E+00 0.63207578E+01</pdfrwt>
<pdfrwt beam="2">  1       -1 0.32450535E+00 0.63207578E+01</pdfrwt>
<totfact> 0.34633856E-02</totfact>
</mgrwt>
</event>
<event>
 4    1  0.4231559E-004  0.6003030E+01  0.7818608E-02  0.2415029E+00
          1   -1    0    0  501    0  0.00000000000E+00  0.00000000000E+00  0.62194634428E+02  0.62194634632E+02  0.50400000000E-02 0. -1.
         -1   -1    0    0    0  501 -0.00000000000E+00 -0.00000000000E+00 -0.14480914595E+00  0.14489682657E+00  0.50400000000E-02 0.  1.
         31    1    1    2    0    0  0.71041413078E+00  0.18809646700E+00  0.23856304783E+02  0.24034472045E+02  0.28271010000E+01 0.  1.
        -31    1    1    2    0    0 -0.71041413078E+00 -0.18809646700E+00  0.38193520499E+02  0.38305059414E+02  0.28271010000E+01 0. -1.
<mgrwt>
<rscale>  0 0.60030296E+01</rscale>
<asrwt>0</asrwt>
<pdfrwt beam="1">  1        1 0.51546686E+00 0.60030296E+01</pdfrwt>
<pdfrwt beam="2">  1       -1 0.30813754E+00 0.60030296E+01</pdfrwt>
<totfact> 0.56977256E-02</totfact>
</mgrwt>
</event>
<event>
 4    1  0.4231559E-004  0.5688728E+01  0.7818608E-02  0.2457787E+00
          1   -1    0    0  501    0  0.00000000000E+00  0.00000000000E+00  0.44185119212E+02  0.44185119499E+02  0.50400000000E-02 0. -1.
         -1   -1    0    0    0  501 -0.00000000000E+00 -0.00000000000E+00 -0.18306757090E+00  0.18313693542E+00  0.50400000000E-02 0.  1.
         31    1    1    2    0    0  0.18970098103E-02  0.12999550181E+00  0.24220823500E+02  0.24385604227E+02  0.28271010000E+01 0. -1.
        -31    1    1    2    0    0 -0.18970098103E-02 -0.12999550181E+00  0.19781228140E+02  0.19982652207E+02  0.28271010000E+01 0.  1.
<mgrwt>
<rscale>  0 0.56887284E+01</rscale>
<asrwt>0</asrwt>
<pdfrwt beam="1">  1        1 0.36686779E+00 0.56887284E+01</pdfrwt>
<pdfrwt beam="2">  1       -1 0.38879905E+00 0.56887284E+01</pdfrwt>
<totfact> 0.76397836E-02</totfact>
</mgrwt>
</event>
<event>
 4    1  0.4231559E-004  0.5670774E+01  0.7818608E-02  0.2460349E+00
          1   -1    0    0  501    0  0.00000000000E+00  0.00000000000E+00  0.60615576588E+02  0.60615576797E+02  0.50400000000E-02 0.  1.
         -1   -1    0    0    0  501 -0.00000000000E+00 -0.00000000000E+00 -0.13258152352E+00  0.13267728509E+00  0.50400000000E-02 0. -1.
         31    1    1    2    0    0  0.74374770374E-01  0.20132684441E-02  0.32420771793E+02  0.32543885438E+02  0.28271010000E+01 0.  1.
        -31    1    1    2    0    0 -0.74374770374E-01 -0.20132684441E-02  0.28062223271E+02  0.28204368644E+02  0.28271010000E+01 0. -1.
<mgrwt>
<rscale>  0 0.56707744E+01</rscale>
<asrwt>0</asrwt>
<pdfrwt beam="1">  1        1 0.50230907E+00 0.56707744E+01</pdfrwt>
<pdfrwt beam="2">  1       -1 0.28217472E+00 0.56707744E+01</pdfrwt>
<totfact> 0.91880126E-02</totfact>
</mgrwt>
</event>
<event>
 4    1  0.4231559E-004  0.6397171E+01  0.7818608E-02  0.2366430E+00
          1   -1    0    0  501    0  0.00000000000E+00  0.00000000000E+00  0.59805764459E+02  0.59805764672E+02  0.50400000000E-02 0.  1.
         -1   -1    0    0    0  501 -0.00000000000E+00 -0.00000000000E+00 -0.17103230735E+00  0.17110655089E+00  0.50400000000E-02 0. -1.
         31    1    1    2    0    0 -0.99619840987E+00 -0.10970624602E+01  0.27884702881E+02  0.28066797326E+02  0.28271010000E+01 0. -1.
        -31    1    1    2    0    0  0.99619840987E+00  0.10970624602E+01  0.31750029271E+02  0.31910073896E+02  0.28271010000E+01 0. -1.
<mgrwt>
<rscale>  0 0.63971715E+01</rscale>
<asrwt>0</asrwt>
<pdfrwt beam="1">  1        1 0.49593073E+00 0.63971715E+01</pdfrwt>
<pdfrwt beam="2">  1       -1 0.36371343E+00 0.63971715E+01</pdfrwt>
<totfact> 0.32477610E-02</totfact>
</mgrwt>
</event>
<event>
 4    1  0.4231559E-004  0.6788652E+01  0.7818608E-02  0.2322843E+00
          1   -1    0    0  501    0  0.00000000000E+00  0.00000000000E+00  0.51170088372E+02  0.51170088621E+02  0.50400000000E-02 0. -1.
         -1   -1    0    0    0  501 -0.00000000000E+00 -0.00000000000E+00 -0.22513140461E+00  0.22518781260E+00  0.50400000000E-02 0.  1.
         31    1    1    2    0    0  0.15420811460E+01  0.94219755065E+00  0.21588453920E+02  0.21847645026E+02  0.28271010000E+01 0. -1.
        -31    1    1    2    0    0 -0.15420811460E+01 -0.94219755065E+00  0.29356503048E+02  0.29547631407E+02  0.28271010000E+01 0. -1.
<mgrwt>
<rscale>  0 0.67886522E+01</rscale>
<asrwt>0</asrwt>
<pdfrwt beam="1">  1        1 0.42497210E+00 0.67886522E+01</pdfrwt>
<pdfrwt beam="2">  1       -1 0.47798149E+00 0.67886522E+01</pdfrwt>
<totfact> 0.11748706E-02</totfact>
</mgrwt>
</event>
<event>
 4    1  0.4231559E-004  0.6206381E+01  0.7818608E-02  0.2389313E+00
          1   -1    0    0  501    0  0.00000000000E+00  0.00000000000E+00  0.45209612254E+02  0.45209612535E+02  0.50400000000E-02 0.  1.
         -1   -1    0    0    0  501 -0.00000000000E+00 -0.00000000000E+00 -0.21297310683E+00  0.21303273418E+00  0.50400000000E-02 0. -1.
         31    1    1    2    0    0  0.39646157426E-01 -0.44281965387E+00  0.13717004260E+02  0.14012364790E+02  0.28271010000E+01 0. -1.
        -31    1    1    2    0    0 -0.39646157426E-01  0.44281965387E+00  0.31279634887E+02  0.31410280480E+02  0.28271010000E+01 0.  1.
<mgrwt>
<rscale>  0 0.62063813E+01</rscale>
<asrwt>0</asrwt>
<pdfrwt beam="1">  1        1 0.37558621E+00 0.62063813E+01</pdfrwt>
<pdfrwt beam="2">  1       -1 0.45203457E+00 0.62063813E+01</pdfrwt>
<totfact> 0.27780112E-02</totfact>
</mgrwt>
</event>
<event>
 4    1  0.4231559E-004  0.7741647E+01  0.7818608E-02  0.2232142E+00
         -1   -1    0    0    0  501 -0.00000000000E+00  0.00000000000E+00  0.98318034707E+02  0.98318034836E+02  0.50400000000E-02 0.  1.
          1   -1    0    0  501    0  0.00000000000E+00 -0.00000000000E+00 -0.15235418797E+00  0.15243752882E+00  0.50400000000E-02 0. -1.
         31    1    1    2    0    0 -0.23913102490E+01 -0.32420399039E+00  0.35340392495E+02  0.35535324885E+02  0.28271010000E+01 0. -1.
        -31    1    1    2    0    0  0.23913102490E+01  0.32420399039E+00  0.62825288024E+02  0.62935147480E+02  0.28271010000E+01 0.  1.
<mgrwt>
<rscale>  0 0.77416469E+01</rscale>
<asrwt>0</asrwt>
<pdfrwt beam="2">  1        1 0.32443512E+00 0.77416469E+01</pdfrwt>
<pdfrwt beam="1">  1       -1 0.81422276E+00 0.77416469E+01</pdfrwt>
<totfact> 0.12315374E-03</totfact>
</mgrwt>
</event>
<event>
 4    1  0.4231559E-004  0.7693665E+01  0.7818608E-02  0.2236268E+00
         -1   -1    0    0    0  501 -0.00000000000E+00  0.00000000000E+00  0.39953705899E+02  0.39953706217E+02  0.50400000000E-02 0.  1.
          1   -1    0    0  501    0  0.00000000000E+00 -0.00000000000E+00 -0.37036424412E+00  0.37039853526E+00  0.50400000000E-02 0. -1.
         31    1    1    2    0    0  0.19828960824E+01 -0.76661324401E+00  0.11867128073E+02  0.12383085298E+02  0.28271010000E+01 0. -1.
        -31    1    1    2    0    0 -0.19828960824E+01  0.76661324401E+00  0.27716213582E+02  0.27941019453E+02  0.28271010000E+01 0.  1.
<mgrwt>
<rscale>  0 0.76936654E+01</rscale>
<asrwt>0</asrwt>
<pdfrwt beam="2">  1        1 0.78247239E+00 0.76936654E+01</pdfrwt>
<pdfrwt beam="1">  1       -1 0.33342791E+00 0.76936654E+01</pdfrwt>
<totfact> 0.13686124E-03</totfact>
</mgrwt>
</event>
<event>
 4    1  0.4231559E-004  0.6584799E+01  0.7818608E-02  0.2345005E+00
         -1   -1    0    0    0  501 -0.00000000000E+00  0.00000000000E+00  0.42076220621E+02  0.42076220923E+02  0.50400000000E-02 0.  1.
          1   -1    0    0  501    0  0.00000000000E+00 -0.00000000000E+00 -0.25760022973E+00  0.25764952932E+00  0.50400000000E-02 0. -1.
         31    1    1    2    0    0  0.51069920542E+00 -0.73819138173E+00  0.11723097257E+02  0.12092528667E+02  0.28271010000E+01 0. -1.
        -31    1    1    2    0    0 -0.51069920542E+00  0.73819138173E+00  0.30095523134E+02  0.30241341786E+02  0.28271010000E+01 0.  1.
<mgrwt>
<rscale>  0 0.65847989E+01</rscale>
<asrwt>0</asrwt>
<pdfrwt beam="2">  1        1 0.54596426E+00 0.65847989E+01</pdfrwt>
<pdfrwt beam="1">  1       -1 0.35004606E+00 0.65847989E+01</pdfrwt>
<totfact> 0.23601208E-02</totfact>
</mgrwt>
</event>
<event>
 4    1  0.4231559E-004  0.6164644E+01  0.7818608E-02  0.2394475E+00
          1   -1    0    0  501    0  0.00000000000E+00  0.00000000000E+00  0.31422278517E+02  0.31422278921E+02  0.50400000000E-02 0. -1.
         -1   -1    0    0    0  501 -0.00000000000E+00 -0.00000000000E+00 -0.30233439576E+00  0.30237640196E+00  0.50400000000E-02 0.  1.
         31    1    1    2    0    0  0.79883715564E+00 -0.47791644599E+00  0.19682299941E+02  0.19906078869E+02  0.28271010000E+01 0. -1.
        -31    1    1    2    0    0 -0.79883715564E+00  0.47791644599E+00  0.11437644180E+02  0.11818576453E+02  0.28271010000E+01 0.  1.
<mgrwt>
<rscale>  0 0.61646438E+01</rscale>
<asrwt>0</asrwt>
<pdfrwt beam="1">  1        1 0.26232165E+00 0.61646438E+01</pdfrwt>
<pdfrwt beam="2">  1       -1 0.63853724E+00 0.61646438E+01</pdfrwt>
<totfact> 0.62007417E-03</totfact>
</mgrwt>
</event>
<event>
 4    1  0.4231559E-004  0.7031405E+01  0.7818608E-02  0.2297839E+00
          1   -1    0    0  501    0  0.00000000000E+00  0.00000000000E+00  0.62321005886E+02  0.62321006090E+02  0.50400000000E-02 0.  1.
         -1   -1    0    0    0  501 -0.00000000000E+00 -0.00000000000E+00 -0.19829841346E+00  0.19836245204E+00  0.50400000000E-02 0. -1.
         31    1    1    2    0    0 -0.12106411132E+01  0.82967093720E+00  0.17832329470E+02  0.18114593017E+02  0.28271010000E+01 0. -1.
        -31    1    1    2    0    0  0.12106411132E+01 -0.82967093720E+00  0.44290378002E+02  0.44404775525E+02  0.28271010000E+01 0.  1.
<mgrwt>
<rscale>  0 0.70314052E+01</rscale>
<asrwt>0</asrwt>
<pdfrwt beam="1">  1        1 0.51695388E+00 0.70314052E+01</pdfrwt>
<pdfrwt beam="2">  1       -1 0.42153810E+00 0.70314052E+01</pdfrwt>
<totfact> 0.11435566E-02</totfact>
</mgrwt>
</event>
<event>
 4    1  0.4231559E-004  0.6513659E+01  0.7818608E-02  0.2353008E+00
         -1   -1    0    0    0  501 -0.00000000000E+00  0.00000000000E+00  0.41480770996E+02  0.41480771303E+02  0.50400000000E-02 0.  1.
          1   -1    0    0  501    0  0.00000000000E+00 -0.00000000000E+00 -0.25568221540E+00  0.25573188474E+00  0.50400000000E-02 0. -1.
         31    1    1    2    0    0 -0.80482454624E+00 -0.59823860552E+00  0.28739781288E+02  0.28895902141E+02  0.28271010000E+01 0.  1.
        -31    1    1    2    0    0  0.80482454624E+00  0.59823860552E+00  0.12485307493E+02  0.12840601047E+02  0.28271010000E+01 0. -1.
<mgrwt>
<rscale>  0 0.65136590E+01</rscale>
<asrwt>0</asrwt>
<pdfrwt beam="2">  1        1 0.54187753E+00 0.65136590E+01</pdfrwt>
<pdfrwt beam="1">  1       -1 0.34510661E+00 0.65136590E+01</pdfrwt>
<totfact> 0.26359734E-02</totfact>
</mgrwt>
</event>
<event>
 4    1  0.4231559E-004  0.6737703E+01  0.7818608E-02  0.2328278E+00
         -1   -1    0    0    0  501 -0.00000000000E+00  0.00000000000E+00  0.49953931784E+02  0.49953932038E+02  0.50400000000E-02 0.  1.
          1   -1    0    0  501    0  0.00000000000E+00 -0.00000000000E+00 -0.22716434447E+00  0.22722024777E+00  0.50400000000E-02 0. -1.
         31    1    1    2    0    0  0.90259375714E+00 -0.12088468820E+01  0.17120971778E+02  0.17418270895E+02  0.28271010000E+01 0. -1.
        -31    1    1    2    0    0 -0.90259375714E+00  0.12088468820E+01  0.32605795661E+02  0.32762881391E+02  0.28271010000E+01 0.  1.
<mgrwt>
<rscale>  0 0.67377032E+01</rscale>
<asrwt>0</asrwt>
<pdfrwt beam="2">  1        1 0.48222563E+00 0.67377032E+01</pdfrwt>
<pdfrwt beam="1">  1       -1 0.41493288E+00 0.67377032E+01</pdfrwt>
<totfact> 0.17843143E-02</totfact>
</mgrwt>
</event>
<event>
 4    1  0.4231559E-004  0.5988818E+01  0.7818608E-02  0.2416881E+00
          1   -1    0    0  501    0  0.00000000000E+00  0.00000000000E+00  0.55117341936E+02  0.55117342167E+02  0.50400000000E-02 0. -1.
         -1   -1    0    0    0  501 -0.00000000000E+00 -0.00000000000E+00 -0.16264067278E+00  0.16271874521E+00  0.50400000000E-02 0.  1.
         31    1    1    2    0    0  0.82540025784E+00  0.14117433854E+00  0.22656477496E+02  0.22847531341E+02  0.28271010000E+01 0. -1.
        -31    1    1    2    0    0 -0.82540025784E+00 -0.14117433854E+00  0.32298223767E+02  0.32432529571E+02  0.28271010000E+01 0. -1.
<mgrwt>
<rscale>  0 0.59888182E+01</rscale>
<asrwt>0</asrwt>
<pdfrwt beam="1">  1        1 0.45709422E+00 0.59888182E+01</pdfrwt>
<pdfrwt beam="2">  1       -1 0.34584453E+00 0.59888182E+01</pdfrwt>
<totfact> 0.60515226E-02</totfact>
</mgrwt>
</event>
<event>
 4    1  0.4231559E-004  0.6282053E+01  0.7818608E-02  0.2380098E+00
         -1   -1    0    0    0  501 -0.00000000000E+00  0.00000000000E+00  0.77381358055E+02  0.77381358219E+02  0.50400000000E-02 0.  1.
          1   -1    0    0  501    0  0.00000000000E+00 -0.00000000000E+00 -0.12744906469E+00  0.12754867969E+00  0.50400000000E-02 0. -1.
         31    1    1    2    0    0  0.19766780898E+00  0.48513488102E+00  0.23024585881E+02  0.23203415341E+02  0.28271010000E+01 0. -1.
        -31    1    1    2    0    0 -0.19766780898E+00 -0.48513488102E+00  0.54229323109E+02  0.54305491558E+02  0.28271010000E+01 0.  1.
<mgrwt>
<rscale>  0 0.62820534E+01</rscale>
<asrwt>0</asrwt>
<pdfrwt beam="2">  1        1 0.27140559E+00 0.62820534E+01</pdfrwt>
<pdfrwt beam="1">  1       -1 0.64089787E+00 0.62820534E+01</pdfrwt>
<totfact> 0.56348741E-03</totfact>
</mgrwt>
</event>
<event>
 4    1  0.4231559E-004  0.6466642E+01  0.7818608E-02  0.2358377E+00
          1   -1    0    0  501    0  0.00000000000E+00  0.00000000000E+00  0.67801530684E+02  0.67801530871E+02  0.50400000000E-02 0. -1.
         -1   -1    0    0    0  501 -0.00000000000E+00 -0.00000000000E+00 -0.15414933774E+00  0.15423170856E+00  0.50400000000E-02 0.  1.
         31    1    1    2    0    0 -0.15167430159E+01  0.10189458021E+00  0.29740507259E+02  0.29913227241E+02  0.28271010000E+01 0. -1.
        -31    1    1    2    0    0  0.15167430159E+01 -0.10189458021E+00  0.37906874087E+02  0.38042535339E+02  0.28271010000E+01 0. -1.
<mgrwt>
<rscale>  0 0.64666425E+01</rscale>
<asrwt>0</asrwt>
<pdfrwt beam="1">  1        1 0.56190579E+00 0.64666425E+01</pdfrwt>
<pdfrwt beam="2">  1       -1 0.32801868E+00 0.64666425E+01</pdfrwt>
<totfact> 0.26967087E-02</totfact>
</mgrwt>
</event>
<event>
 4    1  0.4231559E-004  0.6201140E+01  0.7818608E-02  0.2389958E+00
         -1   -1    0    0    0  501 -0.00000000000E+00  0.00000000000E+00  0.42850700421E+02  0.42850700717E+02  0.50400000000E-02 0. -1.
          1   -1    0    0  501    0  0.00000000000E+00 -0.00000000000E+00 -0.22432092826E+00  0.22437753999E+00  0.50400000000E-02 0.  1.
         31    1    1    2    0    0  0.97701428740E+00  0.68559175657E+00  0.18234462801E+02  0.18490882258E+02  0.28271010000E+01 0. -1.
        -31    1    1    2    0    0 -0.97701428740E+00 -0.68559175657E+00  0.24391916692E+02  0.24584195999E+02  0.28271010000E+01 0. -1.
<mgrwt>
<rscale>  0 0.62011401E+01</rscale>
<asrwt>0</asrwt>
<pdfrwt beam="2">  1        1 0.47586545E+00 0.62011401E+01</pdfrwt>
<pdfrwt beam="1">  1       -1 0.35617489E+00 0.62011401E+01</pdfrwt>
<totfact> 0.43879103E-02</totfact>
</mgrwt>
</event>
<event>
 4    1  0.4231559E-004  0.6663272E+01  0.7818608E-02  0.2336342E+00
          1   -1    0    0  501    0  0.00000000000E+00  0.00000000000E+00  0.27182057731E+02  0.27182058199E+02  0.50400000000E-02 0.  1.
         -1   -1    0    0    0  501 -0.00000000000E+00 -0.00000000000E+00 -0.40833414810E+00  0.40836525085E+00  0.50400000000E-02 0. -1.
         31    1    1    2    0    0 -0.71708077216E+00 -0.74099210103E+00  0.74669695814E+01  0.80505533301E+01  0.28271010000E+01 0. -1.
        -31    1    1    2    0    0  0.71708077216E+00  0.74099210103E+00  0.19306754002E+02  0.19539870119E+02  0.28271010000E+01 0.  1.
<mgrwt>
<rscale>  0 0.66632718E+01</rscale>
<asrwt>0</asrwt>
<pdfrwt beam="1">  1        1 0.22813693E+00 0.66632718E+01</pdfrwt>
<pdfrwt beam="2">  1       -1 0.85779570E+00 0.66632718E+01</pdfrwt>
<totfact> 0.17175167E-03</totfact>
</mgrwt>
</event>
<event>
 4    1  0.4231559E-004  0.5905992E+01  0.7818608E-02  0.2427822E+00
         -1   -1    0    0    0  501 -0.00000000000E+00  0.00000000000E+00  0.41388977981E+02  0.41388978288E+02  0.50400000000E-02 0.  1.
          1   -1    0    0  501    0  0.00000000000E+00 -0.00000000000E+00 -0.21065814504E+00  0.21071842746E+00  0.50400000000E-02 0. -1.
         31    1    1    2    0    0 -0.75600186934E+00  0.11415253613E-01  0.23371321802E+02  0.23553828818E+02  0.28271010000E+01 0.  1.
        -31    1    1    2    0    0  0.75600186934E+00 -0.11415253613E-01  0.17806998033E+02  0.18045867897E+02  0.28271010000E+01 0.  1.
<mgrwt>
<rscale>  0 0.59059921E+01</rscale>
<asrwt>0</asrwt>
<pdfrwt beam="2">  1        1 0.44695389E+00 0.59059921E+01</pdfrwt>
<pdfrwt beam="1">  1       -1 0.34397540E+00 0.59059921E+01</pdfrwt>
<totfact> 0.68313148E-02</totfact>
</mgrwt>
</event>
<event>
 4    1  0.4231559E-004  0.5992035E+01  0.7818608E-02  0.2416461E+00
         -1   -1    0    0    0  501 -0.00000000000E+00  0.00000000000E+00  0.33032302966E+02  0.33032303350E+02  0.50400000000E-02 0. -1.
          1   -1    0    0  501    0  0.00000000000E+00 -0.00000000000E+00 -0.27171387909E+00  0.27176061835E+00  0.50400000000E-02 0.  1.
         31    1    1    2    0    0  0.43041077804E+00 -0.72032462272E+00  0.13441881113E+02  0.13761569275E+02  0.28271010000E+01 0.  1.
        -31    1    1    2    0    0 -0.43041077804E+00  0.72032462272E+00  0.19318707974E+02  0.19542494693E+02  0.28271010000E+01 0. -1.
<mgrwt>
<rscale>  0 0.59920347E+01</rscale>
<asrwt>0</asrwt>
<pdfrwt beam="2">  1        1 0.57467006E+00 0.59920347E+01</pdfrwt>
<pdfrwt beam="1">  1       -1 0.27538130E+00 0.59920347E+01</pdfrwt>
<totfact> 0.47893669E-02</totfact>
</mgrwt>
</event>
<event>
 4    1  0.4231559E-004  0.6425765E+01  0.7818608E-02  0.2363098E+00
          1   -1    0    0  501    0  0.00000000000E+00  0.00000000000E+00  0.88839987961E+02  0.88839988104E+02  0.50400000000E-02 0. -1.
         -1   -1    0    0    0  501 -0.00000000000E+00 -0.00000000000E+00 -0.11613853650E+00  0.11624784411E+00  0.50400000000E-02 0.  1.
         31    1    1    2    0    0  0.45604129871E+00 -0.11693922654E+01  0.32335739464E+02  0.32483349561E+02  0.28271010000E+01 0.  1.
        -31    1    1    2    0    0 -0.45604129871E+00  0.11693922654E+01  0.56388109961E+02  0.56472886388E+02  0.28271010000E+01 0. -1.
<mgrwt>
<rscale>  0 0.64257651E+01</rscale>
<asrwt>0</asrwt>
<pdfrwt beam="1">  1        1 0.73555240E+00 0.64257651E+01</pdfrwt>
<pdfrwt beam="2">  1       -1 0.24742322E+00 0.64257651E+01</pdfrwt>
<totfact> 0.95111881E-03</totfact>
</mgrwt>
</event>
<event>
 4    1  0.4231559E-004  0.6805074E+01  0.7818608E-02  0.2321105E+00
          1   -1    0    0  501    0  0.00000000000E+00  0.00000000000E+00  0.69806517231E+02  0.69806517413E+02  0.50400000000E-02 0. -1.
         -1   -1    0    0    0  501 -0.00000000000E+00 -0.00000000000E+00 -0.16580933624E+00  0.16588591737E+00  0.50400000000E-02 0.  1.
         31    1    1    2    0    0 -0.10452037512E+01 -0.84487964357E+00  0.48532931281E+02  0.48633776239E+02  0.28271010000E+01 0.  1.
        -31    1    1    2    0    0  0.10452037512E+01  0.84487964357E+00  0.21107776614E+02  0.21338627092E+02  0.28271010000E+01 0. -1.
<mgrwt>
<rscale>  0 0.68050740E+01</rscale>
<asrwt>0</asrwt>
<pdfrwt beam="1">  1        1 0.57858079E+00 0.68050740E+01</pdfrwt>
<pdfrwt beam="2">  1       -1 0.35278172E+00 0.68050740E+01</pdfrwt>
<totfact> 0.16050703E-02</totfact>
</mgrwt>
</event>
<event>
 4    1  0.4231559E-004  0.5692439E+01  0.7818608E-02  0.2457259E+00
          1   -1    0    0  501    0  0.00000000000E+00  0.00000000000E+00  0.42080681076E+02  0.42080681378E+02  0.50400000000E-02 0. -1.
         -1   -1    0    0    0  501 -0.00000000000E+00 -0.00000000000E+00 -0.19247703891E+00  0.19254301365E+00  0.50400000000E-02 0.  1.
         31    1    1    2    0    0 -0.60203272035E-01 -0.54003137402E-01  0.23314968820E+02  0.23485885376E+02  0.28271010000E+01 0. -1.
        -31    1    1    2    0    0  0.60203272035E-01  0.54003137402E-01  0.18573235218E+02  0.18787339016E+02  0.28271010000E+01 0.  1.
<mgrwt>
<rscale>  0 0.56924391E+01</rscale>
<asrwt>0</asrwt>
<pdfrwt beam="1">  1        1 0.34954460E+00 0.56924391E+01</pdfrwt>
<pdfrwt beam="2">  1       -1 0.40860020E+00 0.56924391E+01</pdfrwt>
<totfact> 0.67127184E-02</totfact>
</mgrwt>
</event>
<event>
 4    1  0.4231559E-004  0.7260285E+01  0.7818608E-02  0.2275527E+00
         -1   -1    0    0    0  501 -0.00000000000E+00  0.00000000000E+00  0.60011192077E+02  0.60011192288E+02  0.50400000000E-02 0.  1.
          1   -1    0    0  501    0  0.00000000000E+00 -0.00000000000E+00 -0.21956212030E+00  0.21961995872E+00  0.50400000000E-02 0. -1.
         31    1    1    2    0    0  0.25764508161E+00 -0.19303407876E+01  0.39686545513E+02  0.39834746031E+02  0.28271010000E+01 0.  1.
        -31    1    1    2    0    0 -0.25764508161E+00  0.19303407876E+01  0.20105084443E+02  0.20396066216E+02  0.28271010000E+01 0. -1.
<mgrwt>
<rscale>  0 0.72602845E+01</rscale>
<asrwt>0</asrwt>
<pdfrwt beam="2">  1        1 0.46650438E+00 0.72602845E+01</pdfrwt>
<pdfrwt beam="1">  1       -1 0.49803050E+00 0.72602845E+01</pdfrwt>
<totfact> 0.57443084E-03</totfact>
</mgrwt>
</event>
<event>
 4    1  0.4231559E-004  0.6220960E+01  0.7818608E-02  0.2387523E+00
         -1   -1    0    0    0  501 -0.00000000000E+00  0.00000000000E+00  0.42331200569E+02  0.42331200869E+02  0.50400000000E-02 0.  1.
          1   -1    0    0  501    0  0.00000000000E+00 -0.00000000000E+00 -0.22852878694E+00  0.22858435655E+00  0.50400000000E-02 0. -1.
         31    1    1    2    0    0  0.72480955886E+00 -0.10549589880E+01  0.19611407619E+02  0.19855429893E+02  0.28271010000E+01 0. -1.
        -31    1    1    2    0    0 -0.72480955886E+00  0.10549589880E+01  0.22491264163E+02  0.22704355332E+02  0.28271010000E+01 0.  1.
<mgrwt>
<rscale>  0 0.62209603E+01</rscale>
<asrwt>0</asrwt>
<pdfrwt beam="2">  1        1 0.48471069E+00 0.62209603E+01</pdfrwt>
<pdfrwt beam="1">  1       -1 0.35191408E+00 0.62209603E+01</pdfrwt>
<totfact> 0.42693548E-02</totfact>
</mgrwt>
</event>
<event>
 4    1  0.4231559E-004  0.5931159E+01  0.7818608E-02  0.2424470E+00
          1   -1    0    0  501    0  0.00000000000E+00  0.00000000000E+00  0.50719380076E+02  0.50719380326E+02  0.50400000000E-02 0. -1.
         -1   -1    0    0    0  501 -0.00000000000E+00 -0.00000000000E+00 -0.17336155270E+00  0.17343479914E+00  0.50400000000E-02 0.  1.
         31    1    1    2    0    0  0.63431782958E-01  0.86828442343E+00  0.27077366203E+02  0.27238469156E+02  0.28271010000E+01 0. -1.
        -31    1    1    2    0    0 -0.63431782958E-01 -0.86828442343E+00  0.23468652321E+02  0.23654345970E+02  0.28271010000E+01 0.  1.
<mgrwt>
<rscale>  0 0.59311586E+01</rscale>
<asrwt>0</asrwt>
<pdfrwt beam="1">  1        1 0.42081740E+00 0.59311586E+01</pdfrwt>
<pdfrwt beam="2">  1       -1 0.36845951E+00 0.59311586E+01</pdfrwt>
<totfact> 0.62284226E-02</totfact>
</mgrwt>
</event>
<event>
 4    1  0.4231559E-004  0.6661190E+01  0.7818608E-02  0.2336569E+00
         -1   -1    0    0    0  501 -0.00000000000E+00  0.00000000000E+00  0.55374516070E+02  0.55374516300E+02  0.50400000000E-02 0.  1.
          1   -1    0    0  501    0  0.00000000000E+00 -0.00000000000E+00 -0.20029239185E+00  0.20035579311E+00  0.50400000000E-02 0. -1.
         31    1    1    2    0    0  0.11542340892E+01  0.13296582804E+01  0.27497695688E+02  0.27698664511E+02  0.28271010000E+01 0. -1.
        -31    1    1    2    0    0 -0.11542340892E+01 -0.13296582804E+01  0.27676527990E+02  0.27876207582E+02  0.28271010000E+01 0. -1.
<mgrwt>
<rscale>  0 0.66611898E+01</rscale>
<asrwt>0</asrwt>
<pdfrwt beam="2">  1        1 0.42559088E+00 0.66611898E+01</pdfrwt>
<pdfrwt beam="1">  1       -1 0.45953193E+00 0.66611898E+01</pdfrwt>
<totfact> 0.15598786E-02</totfact>
</mgrwt>
</event>
<event>
 4    1  0.4231559E-004  0.6217174E+01  0.7818608E-02  0.2387987E+00
         -1   -1    0    0    0  501 -0.00000000000E+00  0.00000000000E+00  0.41648245747E+02  0.41648246052E+02  0.50400000000E-02 0. -1.
          1   -1    0    0  501    0  0.00000000000E+00 -0.00000000000E+00 -0.23199443142E+00  0.23204917110E+00  0.50400000000E-02 0.  1.
         31    1    1    2    0    0 -0.26691851898E+00 -0.62607330687E+00  0.28110624036E+02  0.28260624498E+02  0.28271010000E+01 0. -1.
        -31    1    1    2    0    0  0.26691851898E+00  0.62607330687E+00  0.13305627280E+02  0.13619670725E+02  0.28271010000E+01 0.  1.
<mgrwt>
<rscale>  0 0.62171742E+01</rscale>
<asrwt>0</asrwt>
<pdfrwt beam="2">  1        1 0.49197553E+00 0.62171742E+01</pdfrwt>
<pdfrwt beam="1">  1       -1 0.34629558E+00 0.62171742E+01</pdfrwt>
<totfact> 0.42944275E-02</totfact>
</mgrwt>
</event>
<event>
 4    1  0.4231559E-004  0.5895642E+01  0.7818608E-02  0.2429207E+00
         -1   -1    0    0    0  501 -0.00000000000E+00  0.00000000000E+00  0.42504068502E+02  0.42504068801E+02  0.50400000000E-02 0. -1.
          1   -1    0    0  501    0  0.00000000000E+00 -0.00000000000E+00 -0.20441141761E+00  0.20447354169E+00  0.50400000000E-02 0.  1.
         31    1    1    2    0    0  0.72342070167E+00 -0.78807827147E-02  0.24169406741E+02  0.24344940376E+02  0.28271010000E+01 0. -1.
        -31    1    1    2    0    0 -0.72342070167E+00  0.78807827147E-02  0.18130250343E+02  0.18363601967E+02  0.28271010000E+01 0.  1.
<mgrwt>
<rscale>  0 0.58956424E+01</rscale>
<asrwt>0</asrwt>
<pdfrwt beam="2">  1        1 0.43382511E+00 0.58956424E+01</pdfrwt>
<pdfrwt beam="1">  1       -1 0.35314411E+00 0.58956424E+01</pdfrwt>
<totfact> 0.68170622E-02</totfact>
</mgrwt>
</event>
<event>
 4    1  0.4231559E-004  0.5897411E+01  0.7818608E-02  0.2428970E+00
         -1   -1    0    0    0  501 -0.00000000000E+00  0.00000000000E+00  0.46312716918E+02  0.46312717193E+02  0.50400000000E-02 0. -1.
          1   -1    0    0  501    0  0.00000000000E+00 -0.00000000000E+00 -0.18770839977E+00  0.18777604997E+00  0.50400000000E-02 0.  1.
         31    1    1    2    0    0  0.41186498007E+00 -0.72988509540E+00  0.23065679382E+02  0.23253396106E+02  0.28271010000E+01 0. -1.
        -31    1    1    2    0    0 -0.41186498007E+00  0.72988509540E+00  0.23059329136E+02  0.23247097137E+02  0.28271010000E+01 0.  1.
<mgrwt>
<rscale>  0 0.58974114E+01</rscale>
<asrwt>0</asrwt>
<pdfrwt beam="2">  1        1 0.39868735E+00 0.58974114E+01</pdfrwt>
<pdfrwt beam="1">  1       -1 0.38449861E+00 0.58974114E+01</pdfrwt>
<totfact> 0.60957422E-02</totfact>
</mgrwt>
</event>
<event>
 4    1  0.4231559E-004  0.7037378E+01  0.7818608E-02  0.2297242E+00
         -1   -1    0    0    0  501 -0.00000000000E+00  0.00000000000E+00  0.53925020819E+02  0.53925021055E+02  0.50400000000E-02 0. -1.
          1   -1    0    0  501    0  0.00000000000E+00 -0.00000000000E+00 -0.22957188565E+00  0.22962720283E+00  0.50400000000E-02 0.  1.
         31    1    1    2    0    0  0.61734661436E+00 -0.87847252952E+00  0.13005097825E+02  0.13352074757E+02  0.28271010000E+01 0.  1.
        -31    1    1    2    0    0 -0.61734661436E+00  0.87847252952E+00  0.40690351109E+02  0.40802573500E+02  0.28271010000E+01 0. -1.
<mgrwt>
<rscale>  0 0.70373782E+01</rscale>
<asrwt>0</asrwt>
<pdfrwt beam="2">  1        1 0.48747596E+00 0.70373782E+01</pdfrwt>
<pdfrwt beam="1">  1       -1 0.44778852E+00 0.70373782E+01</pdfrwt>
<totfact> 0.10316417E-02</totfact>
</mgrwt>
</event>
<event>
 4    1  0.4231559E-004  0.5818140E+01  0.7818608E-02  0.2439711E+00
         -1   -1    0    0    0  501 -0.00000000000E+00  0.00000000000E+00  0.40025863160E+02  0.40025863477E+02  0.50400000000E-02 0.  1.
          1   -1    0    0  501    0  0.00000000000E+00 -0.00000000000E+00 -0.21140017238E+00  0.21146024326E+00  0.50400000000E-02 0. -1.
         31    1    1    2    0    0 -0.42251189502E+00  0.43546169340E+00  0.17697991029E+02  0.17932638672E+02  0.28271010000E+01 0. -1.
        -31    1    1    2    0    0  0.42251189502E+00 -0.43546169340E+00  0.22116471958E+02  0.22304685049E+02  0.28271010000E+01 0.  1.
<mgrwt>
<rscale>  0 0.58181404E+01</rscale>
<asrwt>0</asrwt>
<pdfrwt beam="2">  1        1 0.44844219E+00 0.58181404E+01</pdfrwt>
<pdfrwt beam="1">  1       -1 0.33271035E+00 0.58181404E+01</pdfrwt>
<totfact> 0.78443093E-02</totfact>
</mgrwt>
</event>
<event>
 4    1  0.4231559E-004  0.6641443E+01  0.7818608E-02  0.2338735E+00
          1   -1    0    0  501    0  0.00000000000E+00  0.00000000000E+00  0.39095529537E+02  0.39095529862E+02  0.50400000000E-02 0. -1.
         -1   -1    0    0    0  501 -0.00000000000E+00 -0.00000000000E+00 -0.28203474561E+00  0.28207977476E+00  0.50400000000E-02 0.  1.
         31    1    1    2    0    0  0.73887773059E+00 -0.13713002096E+01  0.14782502301E+02  0.15130805627E+02  0.28271010000E+01 0. -1.
        -31    1    1    2    0    0 -0.73887773059E+00  0.13713002096E+01  0.24030992491E+02  0.24246804010E+02  0.28271010000E+01 0. -1.
<mgrwt>
<rscale>  0 0.66414428E+01</rscale>
<asrwt>0</asrwt>
<pdfrwt beam="1">  1        1 0.32560163E+00 0.66414428E+01</pdfrwt>
<pdfrwt beam="2">  1       -1 0.59709398E+00 0.66414428E+01</pdfrwt>
<totfact> 0.51093126E-03</totfact>
</mgrwt>
</event>
<event>
 4    1  0.4231559E-004  0.6167727E+01  0.7818608E-02  0.2394092E+00
         -1   -1    0    0    0  501 -0.00000000000E+00  0.00000000000E+00  0.40194689102E+02  0.40194689418E+02  0.50400000000E-02 0. -1.
          1   -1    0    0  501    0  0.00000000000E+00 -0.00000000000E+00 -0.23657655787E+00  0.23663023757E+00  0.50400000000E-02 0.  1.
         31    1    1    2    0    0 -0.11000888976E+01 -0.41693143513E+00  0.17582240784E+02  0.17846896606E+02  0.28271010000E+01 0. -1.
        -31    1    1    2    0    0  0.11000888976E+01  0.41693143513E+00  0.22375871760E+02  0.22584423049E+02  0.28271010000E+01 0.  1.
<mgrwt>
<rscale>  0 0.61677266E+01</rscale>
<asrwt>0</asrwt>
<pdfrwt beam="2">  1        1 0.50153295E+00 0.61677266E+01</pdfrwt>
<pdfrwt beam="1">  1       -1 0.33431444E+00 0.61677266E+01</pdfrwt>
<totfact> 0.46005698E-02</totfact>
</mgrwt>
</event>
<event>
 4    1  0.4231559E-004  0.6180285E+01  0.7818608E-02  0.2392534E+00
         -1   -1    0    0    0  501 -0.00000000000E+00  0.00000000000E+00  0.31748956663E+02  0.31748957063E+02  0.50400000000E-02 0. -1.
          1   -1    0    0  501    0  0.00000000000E+00 -0.00000000000E+00 -0.30074370253E+00  0.30078593087E+00  0.50400000000E-02 0.  1.
         31    1    1    2    0    0  0.88347877231E+00  0.52871007466E+00  0.19377845152E+02  0.19610034469E+02  0.28271010000E+01 0. -1.
        -31    1    1    2    0    0 -0.88347877231E+00 -0.52871007466E+00  0.12070367809E+02  0.12439708525E+02  0.28271010000E+01 0.  1.
<mgrwt>
<rscale>  0 0.61802854E+01</rscale>
<asrwt>0</asrwt>
<pdfrwt beam="2">  1        1 0.63527194E+00 0.61802854E+01</pdfrwt>
<pdfrwt beam="1">  1       -1 0.26500970E+00 0.61802854E+01</pdfrwt>
<totfact> 0.27868339E-02</totfact>
</mgrwt>
</event>
<event>
 4    1  0.4231559E-004  0.6881612E+01  0.7818608E-02  0.2313097E+00
         -1   -1    0    0    0  501 -0.00000000000E+00  0.00000000000E+00  0.43995066048E+02  0.43995066337E+02  0.50400000000E-02 0.  1.
          1   -1    0    0  501    0  0.00000000000E+00 -0.00000000000E+00 -0.26907778996E+00  0.26912498704E+00  0.50400000000E-02 0. -1.
         31    1    1    2    0    0 -0.98476048162E+00 -0.39357205448E+00  0.11250782064E+02  0.11648916228E+02  0.28271010000E+01 0. -1.
        -31    1    1    2    0    0  0.98476048162E+00  0.39357205448E+00  0.32475206194E+02  0.32615275096E+02  0.28271010000E+01 0.  1.
<mgrwt>
<rscale>  0 0.68816120E+01</rscale>
<asrwt>0</asrwt>
<pdfrwt beam="2">  1        1 0.57028901E+00 0.68816120E+01</pdfrwt>
<pdfrwt beam="1">  1       -1 0.36600730E+00 0.68816120E+01</pdfrwt>
<totfact> 0.14606966E-02</totfact>
</mgrwt>
</event>
<event>
 4    1  0.4231559E-004  0.6087583E+01  0.7818608E-02  0.2404162E+00
          1   -1    0    0  501    0  0.00000000000E+00  0.00000000000E+00  0.55647555608E+02  0.55647555836E+02  0.50400000000E-02 0. -1.
         -1   -1    0    0    0  501 -0.00000000000E+00 -0.00000000000E+00 -0.16644990581E+00  0.16652619237E+00  0.50400000000E-02 0.  1.
         31    1    1    2    0    0  0.13317128624E+00 -0.10518349322E+01  0.24212470024E+02  0.24400006067E+02  0.28271010000E+01 0.  1.
        -31    1    1    2    0    0 -0.13317128624E+00  0.10518349322E+01  0.31268635678E+02  0.31414075962E+02  0.28271010000E+01 0. -1.
<mgrwt>
<rscale>  0 0.60875827E+01</rscale>
<asrwt>0</asrwt>
<pdfrwt beam="1">  1        1 0.46150988E+00 0.60875827E+01</pdfrwt>
<pdfrwt beam="2">  1       -1 0.35392653E+00 0.60875827E+01</pdfrwt>
<totfact> 0.51955020E-02</totfact>
</mgrwt>
</event>
<event>
 4    1  0.4231559E-004  0.6009796E+01  0.7818608E-02  0.2414150E+00
         -1   -1    0    0    0  501 -0.00000000000E+00  0.00000000000E+00  0.33804096276E+02  0.33804096652E+02  0.50400000000E-02 0.  1.
          1   -1    0    0  501    0  0.00000000000E+00 -0.00000000000E+00 -0.26708583296E+00  0.26713338198E+00  0.50400000000E-02 0. -1.
         31    1    1    2    0    0  0.38157933584E+00 -0.71843798860E-01  0.22105306585E+02  0.22288738044E+02  0.28271010000E+01 0. -1.
        -31    1    1    2    0    0 -0.38157933584E+00  0.71843798860E-01  0.11431703858E+02  0.11782491990E+02  0.28271010000E+01 0. -1.
<mgrwt>
<rscale>  0 0.60097959E+01</rscale>
<asrwt>0</asrwt>
<pdfrwt beam="2">  1        1 0.56506551E+00 0.60097959E+01</pdfrwt>
<pdfrwt beam="1">  1       -1 0.28172477E+00 0.60097959E+01</pdfrwt>
<totfact> 0.48717752E-02</totfact>
</mgrwt>
</event>
<event>
 4    1  0.4231559E-004  0.6150394E+01  0.7818608E-02  0.2396251E+00
         -1   -1    0    0    0  501 -0.00000000000E+00  0.00000000000E+00  0.58553218014E+02  0.58553218231E+02  0.50400000000E-02 0.  1.
          1   -1    0    0  501    0  0.00000000000E+00 -0.00000000000E+00 -0.16146885178E+00  0.16154749053E+00  0.50400000000E-02 0. -1.
         31    1    1    2    0    0 -0.55156465434E+00 -0.99109195914E+00  0.25169908704E+02  0.25353565648E+02  0.28271010000E+01 0. -1.
        -31    1    1    2    0    0  0.55156465434E+00  0.99109195914E+00  0.33221840459E+02  0.33361200074E+02  0.28271010000E+01 0.  1.
<mgrwt>
<rscale>  0 0.61503938E+01</rscale>
<asrwt>0</asrwt>
<pdfrwt beam="2">  1        1 0.34342007E+00 0.61503938E+01</pdfrwt>
<pdfrwt beam="1">  1       -1 0.48549476E+00 0.61503938E+01</pdfrwt>
<totfact> 0.22002090E-02</totfact>
</mgrwt>
</event>
<event>
 4    1  0.4231559E-004  0.6343517E+01  0.7818608E-02  0.2372749E+00
         -1   -1    0    0    0  501 -0.00000000000E+00  0.00000000000E+00  0.46496756604E+02  0.46496756877E+02  0.50400000000E-02 0.  1.
          1   -1    0    0  501    0  0.00000000000E+00 -0.00000000000E+00 -0.21633066479E+00  0.21638936695E+00  0.50400000000E-02 0. -1.
         31    1    1    2    0    0  0.41246353256E+00  0.13734884131E+01  0.22369457317E+02  0.22592957250E+02  0.28271010000E+01 0. -1.
        -31    1    1    2    0    0 -0.41246353256E+00 -0.13734884131E+01  0.23910968622E+02  0.24120188994E+02  0.28271010000E+01 0.  1.
<mgrwt>
<rscale>  0 0.63435169E+01</rscale>
<asrwt>0</asrwt>
<pdfrwt beam="2">  1        1 0.45918559E+00 0.63435169E+01</pdfrwt>
<pdfrwt beam="1">  1       -1 0.38625698E+00 0.63435169E+01</pdfrwt>
<totfact> 0.33813634E-02</totfact>
</mgrwt>
</event>
<event>
 4    1  0.4231559E-004  0.7156656E+01  0.7818608E-02  0.2285484E+00
         -1   -1    0    0    0  501 -0.00000000000E+00  0.00000000000E+00  0.48137555079E+02  0.48137555343E+02  0.50400000000E-02 0. -1.
          1   -1    0    0  501    0  0.00000000000E+00 -0.00000000000E+00 -0.26597257037E+00  0.26602031837E+00  0.50400000000E-02 0.  1.
         31    1    1    2    0    0  0.28113651653E+00  0.24175572737E+00  0.38558655589E+02  0.38663935450E+02  0.28271010000E+01 0. -1.
        -31    1    1    2    0    0 -0.28113651653E+00 -0.24175572737E+00  0.93129269194E+01  0.97396402112E+01  0.28271010000E+01 0.  1.
<mgrwt>
<rscale>  0 0.71566560E+01</rscale>
<asrwt>0</asrwt>
<pdfrwt beam="2">  1        1 0.56404013E+00 0.71566560E+01</pdfrwt>
<pdfrwt beam="1">  1       -1 0.40023463E+00 0.71566560E+01</pdfrwt>
<totfact> 0.95764237E-03</totfact>
</mgrwt>
</event>
<event>
 4    1  0.4231559E-004  0.6398382E+01  0.7818608E-02  0.2366288E+00
         -1   -1    0    0    0  501 -0.00000000000E+00  0.00000000000E+00  0.36767136535E+02  0.36767136880E+02  0.50400000000E-02 0. -1.
          1   -1    0    0  501    0  0.00000000000E+00 -0.00000000000E+00 -0.27834565148E+00  0.27839127734E+00  0.50400000000E-02 0.  1.
         31    1    1    2    0    0  0.15598241492E+00  0.13101056433E+00  0.26833716315E+02  0.26983000678E+02  0.28271010000E+01 0. -1.
        -31    1    1    2    0    0 -0.15598241492E+00 -0.13101056433E+00  0.96550745683E+01  0.10062527479E+02  0.28271010000E+01 0.  1.
<mgrwt>
<rscale>  0 0.63983823E+01</rscale>
<asrwt>0</asrwt>
<pdfrwt beam="2">  1        1 0.58907657E+00 0.63983823E+01</pdfrwt>
<pdfrwt beam="1">  1       -1 0.30631835E+00 0.63983823E+01</pdfrwt>
<totfact> 0.26959942E-02</totfact>
</mgrwt>
</event>
<event>
 4    1  0.4231559E-004  0.6323629E+01  0.7818608E-02  0.2375114E+00
          1   -1    0    0  501    0  0.00000000000E+00  0.00000000000E+00  0.67840119254E+02  0.67840119441E+02  0.50400000000E-02 0. -1.
         -1   -1    0    0    0  501 -0.00000000000E+00 -0.00000000000E+00 -0.14731895817E+00  0.14740514590E+00  0.50400000000E-02 0.  1.
         31    1    1    2    0    0 -0.31381581555E+00 -0.13100908159E+01  0.29163037930E+02  0.29330702338E+02  0.28271010000E+01 0.  1.
        -31    1    1    2    0    0  0.31381581555E+00  0.13100908159E+01  0.38529762366E+02  0.38656822249E+02  0.28271010000E+01 0.  1.
<mgrwt>
<rscale>  0 0.63236293E+01</rscale>
<asrwt>0</asrwt>
<pdfrwt beam="1">  1        1 0.56216842E+00 0.63236293E+01</pdfrwt>
<pdfrwt beam="2">  1       -1 0.31352397E+00 0.63236293E+01</pdfrwt>
<totfact> 0.32731794E-02</totfact>
</mgrwt>
</event>
<event>
 4    1  0.4231559E-004  0.6153314E+01  0.7818608E-02  0.2395887E+00
         -1   -1    0    0    0  501 -0.00000000000E+00  0.00000000000E+00  0.51466390729E+02  0.51466390975E+02  0.50400000000E-02 0.  1.
          1   -1    0    0  501    0  0.00000000000E+00 -0.00000000000E+00 -0.18388756664E+00  0.18395662196E+00  0.50400000000E-02 0. -1.
         31    1    1    2    0    0 -0.35029382066E+00 -0.66350150123E+00  0.33650195903E+02  0.33777079867E+02  0.28271010000E+01 0.  1.
        -31    1    1    2    0    0  0.35029382066E+00  0.66350150123E+00  0.17632307259E+02  0.17873267730E+02  0.28271010000E+01 0. -1.
<mgrwt>
<rscale>  0 0.61533143E+01</rscale>
<asrwt>0</asrwt>
<pdfrwt beam="2">  1        1 0.39076181E+00 0.61533143E+01</pdfrwt>
<pdfrwt beam="1">  1       -1 0.42708121E+00 0.61533143E+01</pdfrwt>
<totfact> 0.35325169E-02</totfact>
</mgrwt>
</event>
<event>
 4    1  0.4231559E-004  0.5864707E+01  0.7818608E-02  0.2433372E+00
          1   -1    0    0  501    0  0.00000000000E+00  0.00000000000E+00  0.22756873180E+02  0.22756873738E+02  0.50400000000E-02 0. -1.
         -1   -1    0    0    0  501 -0.00000000000E+00 -0.00000000000E+00 -0.37783321634E+00  0.37786682967E+00  0.50400000000E-02 0.  1.
         31    1    1    2    0    0  0.23810593671E+00  0.17562851615E+00  0.83486011397E+01  0.88192505842E+01  0.28271010000E+01 0.  1.
        -31    1    1    2    0    0 -0.23810593671E+00 -0.17562851615E+00  0.14030438824E+02  0.14315489983E+02  0.28271010000E+01 0. -1.
<mgrwt>
<rscale>  0 0.58647073E+01</rscale>
<asrwt>0</asrwt>
<pdfrwt beam="1">  1        1 0.19129422E+00 0.58647073E+01</pdfrwt>
<pdfrwt beam="2">  1       -1 0.79249259E+00 0.58647073E+01</pdfrwt>
<totfact> 0.52515763E-03</totfact>
</mgrwt>
</event>
<event>
 4    1  0.4231559E-004  0.5830931E+01  0.7818608E-02  0.2437961E+00
          1   -1    0    0  501    0  0.00000000000E+00  0.00000000000E+00  0.26780921072E+02  0.26780921546E+02  0.50400000000E-02 0.  1.
         -1   -1    0    0    0  501 -0.00000000000E+00 -0.00000000000E+00 -0.31736740979E+00  0.31740742649E+00  0.50400000000E-02 0. -1.
         31    1    1    2    0    0 -0.27468837076E+00 -0.21020092410E+00  0.10337703108E+02  0.10722884115E+02  0.28271010000E+01 0. -1.
        -31    1    1    2    0    0  0.27468837076E+00  0.21020092410E+00  0.16125850554E+02  0.16375444858E+02  0.28271010000E+01 0.  1.
<mgrwt>
<rscale>  0 0.58309314E+01</rscale>
<asrwt>0</asrwt>
<pdfrwt beam="1">  1        1 0.22406794E+00 0.58309314E+01</pdfrwt>
<pdfrwt beam="2">  1       -1 0.66880655E+00 0.58309314E+01</pdfrwt>
<totfact> 0.73437859E-03</totfact>
</mgrwt>
</event>
<event>
 4    1  0.4231559E-004  0.5752177E+01  0.7818608E-02  0.2448839E+00
          1   -1    0    0  501    0  0.00000000000E+00  0.00000000000E+00  0.32939789062E+02  0.32939789447E+02  0.50400000000E-02 0. -1.
         -1   -1    0    0    0  501 -0.00000000000E+00 -0.00000000000E+00 -0.25109567563E+00  0.25114625205E+00  0.50400000000E-02 0.  1.
         31    1    1    2    0    0 -0.51537524324E+00 -0.49137112693E-01  0.16959298914E+02  0.17201114668E+02  0.28271010000E+01 0. -1.
        -31    1    1    2    0    0  0.51537524324E+00  0.49137112693E-01  0.15729394472E+02  0.15989821031E+02  0.28271010000E+01 0.  1.
<mgrwt>
<rscale>  0 0.57521767E+01</rscale>
<asrwt>0</asrwt>
<pdfrwt beam="1">  1        1 0.27444588E+00 0.57521767E+01</pdfrwt>
<pdfrwt beam="2">  1       -1 0.53138845E+00 0.57521767E+01</pdfrwt>
<totfact> 0.19670508E-02</totfact>
</mgrwt>
</event>
<event>
 4    1  0.4231559E-004  0.5893407E+01  0.7818608E-02  0.2429507E+00
         -1   -1    0    0    0  501 -0.00000000000E+00  0.00000000000E+00  0.42764479632E+02  0.42764479929E+02  0.50400000000E-02 0. -1.
          1   -1    0    0  501    0  0.00000000000E+00 -0.00000000000E+00 -0.20301219535E+00  0.20307474747E+00  0.50400000000E-02 0.  1.
         31    1    1    2    0    0 -0.79226161125E+00  0.90083561786E-01  0.19574510326E+02  0.19793679498E+02  0.28271010000E+01 0.  1.
        -31    1    1    2    0    0  0.79226161125E+00 -0.90083561786E-01  0.22986957110E+02  0.23173875178E+02  0.28271010000E+01 0. -1.
<mgrwt>
<rscale>  0 0.58934069E+01</rscale>
<asrwt>0</asrwt>
<pdfrwt beam="2">  1        1 0.43088302E+00 0.58934069E+01</pdfrwt>
<pdfrwt beam="1">  1       -1 0.35528580E+00 0.58934069E+01</pdfrwt>
<totfact> 0.68038253E-02</totfact>
</mgrwt>
</event>
<event>
 4    1  0.4231559E-004  0.6852574E+01  0.7818608E-02  0.2316118E+00
          1   -1    0    0  501    0  0.00000000000E+00  0.00000000000E+00  0.88859363179E+02  0.88859363322E+02  0.50400000000E-02 0.  1.
         -1   -1    0    0    0  501 -0.00000000000E+00 -0.00000000000E+00 -0.13206438878E+00  0.13216052506E+00  0.50400000000E-02 0. -1.
         31    1    1    2    0    0 -0.11307767415E+01 -0.16434452294E+00  0.24072652002E+02  0.24265010604E+02  0.28271010000E+01 0. -1.
        -31    1    1    2    0    0  0.11307767415E+01  0.16434452294E+00  0.64654646788E+02  0.64726513242E+02  0.28271010000E+01 0.  1.
<mgrwt>
<rscale>  0 0.68525737E+01</rscale>
<asrwt>0</asrwt>
<pdfrwt beam="1">  1        1 0.73584418E+00 0.68525737E+01</pdfrwt>
<pdfrwt beam="2">  1       -1 0.28127164E+00 0.68525737E+01</pdfrwt>
<totfact> 0.59302976E-03</totfact>
</mgrwt>
</event>
<event>
 4    1  0.4231559E-004  0.5890246E+01  0.7818608E-02  0.2429931E+00
         -1   -1    0    0    0  501 -0.00000000000E+00  0.00000000000E+00  0.63825470020E+02  0.63825470219E+02  0.50400000000E-02 0.  1.
          1   -1    0    0  501    0  0.00000000000E+00 -0.00000000000E+00 -0.13585102753E+00  0.13594448603E+00  0.50400000000E-02 0. -1.
         31    1    1    2    0    0  0.11314030772E+00  0.55284190202E-01  0.22987048442E+02  0.23160586202E+02  0.28271010000E+01 0. -1.
        -31    1    1    2    0    0 -0.11314030772E+00 -0.55284190202E-01  0.40702570550E+02  0.40800828503E+02  0.28271010000E+01 0.  1.
<mgrwt>
<rscale>  0 0.58902465E+01</rscale>
<asrwt>0</asrwt>
<pdfrwt beam="2">  1        1 0.28914524E+00 0.58902465E+01</pdfrwt>
<pdfrwt beam="1">  1       -1 0.52887773E+00 0.58902465E+01</pdfrwt>
<totfact> 0.17965606E-02</totfact>
</mgrwt>
</event>
<event>
 4    1  0.4231559E-004  0.5950068E+01  0.7818608E-02  0.2421968E+00
          1   -1    0    0  501    0  0.00000000000E+00  0.00000000000E+00  0.53490927587E+02  0.53490927824E+02  0.50400000000E-02 0. -1.
         -1   -1    0    0    0  501 -0.00000000000E+00 -0.00000000000E+00 -0.16542543953E+00  0.16550219830E+00  0.50400000000E-02 0.  1.
         31    1    1    2    0    0  0.75983095826E+00 -0.13517578979E+00  0.31284840826E+02  0.31421797867E+02  0.28271010000E+01 0. -1.
        -31    1    1    2    0    0 -0.75983095826E+00  0.13517578979E+00  0.22040661321E+02  0.22234632156E+02  0.28271010000E+01 0.  1.
<mgrwt>
<rscale>  0 0.59500675E+01</rscale>
<asrwt>0</asrwt>
<pdfrwt beam="1">  1        1 0.44366890E+00 0.59500675E+01</pdfrwt>
<pdfrwt beam="2">  1       -1 0.35171361E+00 0.59500675E+01</pdfrwt>
<totfact> 0.63405816E-02</totfact>
</mgrwt>
</event>
<event>
 4    1  0.4231559E-004  0.6440203E+01  0.7818608E-02  0.2361425E+00
          1   -1    0    0  501    0  0.00000000000E+00  0.00000000000E+00  0.67735760271E+02  0.67735760459E+02  0.50400000000E-02 0. -1.
         -1   -1    0    0    0  501 -0.00000000000E+00 -0.00000000000E+00 -0.15303925798E+00  0.15312222596E+00  0.50400000000E-02 0.  1.
         31    1    1    2    0    0  0.13788260084E+01 -0.46007450585E+00  0.39204801790E+02  0.39333469376E+02  0.28271010000E+01 0.  1.
        -31    1    1    2    0    0 -0.13788260084E+01  0.46007450585E+00  0.28377919223E+02  0.28555413308E+02  0.28271010000E+01 0.  1.
<mgrwt>
<rscale>  0 0.64402028E+01</rscale>
<asrwt>0</asrwt>
<pdfrwt beam="1">  1        1 0.56135278E+00 0.64402028E+01</pdfrwt>
<pdfrwt beam="2">  1       -1 0.32566238E+00 0.64402028E+01</pdfrwt>
<totfact> 0.28009787E-02</totfact>
</mgrwt>
</event>
<event>
 4    1  0.4231559E-004  0.5728428E+01  0.7818608E-02  0.2452169E+00
          1   -1    0    0  501    0  0.00000000000E+00  0.00000000000E+00  0.59150266101E+02  0.59150266316E+02  0.50400000000E-02 0.  1.
         -1   -1    0    0    0  501 -0.00000000000E+00 -0.00000000000E+00 -0.13864688360E+00  0.13873845873E+00  0.50400000000E-02 0. -1.
         31    1    1    2    0    0  0.30127596657E+00  0.12982762946E+00  0.26174494318E+02  0.26328772764E+02  0.28271010000E+01 0. -1.
        -31    1    1    2    0    0 -0.30127596657E+00 -0.12982762946E+00  0.32837124900E+02  0.32960232010E+02  0.28271010000E+01 0.  1.
<mgrwt>
<rscale>  0 0.57284277E+01</rscale>
<asrwt>0</asrwt>
<pdfrwt beam="1">  1        1 0.49024297E+00 0.57284277E+01</pdfrwt>
<pdfrwt beam="2">  1       -1 0.29502844E+00 0.57284277E+01</pdfrwt>
<totfact> 0.87085385E-02</totfact>
</mgrwt>
</event>
<event>
 4    1  0.4231559E-004  0.5767580E+01  0.7818608E-02  0.2446692E+00
         -1   -1    0    0    0  501 -0.00000000000E+00  0.00000000000E+00  0.39152143428E+02  0.39152143752E+02  0.50400000000E-02 0.  1.
          1   -1    0    0  501    0  0.00000000000E+00 -0.00000000000E+00 -0.21237821584E+00  0.21243801017E+00  0.50400000000E-02 0. -1.
         31    1    1    2    0    0 -0.46188813988E+00 -0.12715894373E-02  0.17202091589E+02  0.17438973518E+02  0.28271010000E+01 0. -1.
        -31    1    1    2    0    0  0.46188813988E+00  0.12715894373E-02  0.21737673623E+02  0.21925608244E+02  0.28271010000E+01 0.  1.
<mgrwt>
<rscale>  0 0.57675803E+01</rscale>
<asrwt>0</asrwt>
<pdfrwt beam="2">  1        1 0.45045232E+00 0.57675803E+01</pdfrwt>
<pdfrwt beam="1">  1       -1 0.32549390E+00 0.57675803E+01</pdfrwt>
<totfact> 0.84809065E-02</totfact>
</mgrwt>
</event>
<event>
 4    1  0.4231559E-004  0.6450275E+01  0.7818608E-02  0.2360262E+00
          1   -1    0    0  501    0  0.00000000000E+00  0.00000000000E+00  0.61136734972E+02  0.61136735180E+02  0.50400000000E-02 0.  1.
         -1   -1    0    0    0  501 -0.00000000000E+00 -0.00000000000E+00 -0.17009766774E+00  0.17017231905E+00  0.50400000000E-02 0. -1.
         31    1    1    2    0    0  0.17682775219E-01 -0.11883836318E+01  0.20995698583E+02  0.21218492580E+02  0.28271010000E+01 0. -1.
        -31    1    1    2    0    0 -0.17682775219E-01  0.11883836318E+01  0.39970938721E+02  0.40088414918E+02  0.28271010000E+01 0.  1.
<mgrwt>
<rscale>  0 0.64502746E+01</rscale>
<asrwt>0</asrwt>
<pdfrwt beam="1">  1        1 0.50692841E+00 0.64502746E+01</pdfrwt>
<pdfrwt beam="2">  1       -1 0.36175469E+00 0.64502746E+01</pdfrwt>
<totfact> 0.29913844E-02</totfact>
</mgrwt>
</event>
<event>
 4    1  0.4231559E-004  0.6527025E+01  0.7818608E-02  0.2351494E+00
          1   -1    0    0  501    0  0.00000000000E+00  0.00000000000E+00  0.56151201199E+02  0.56151201425E+02  0.50400000000E-02 0.  1.
         -1   -1    0    0    0  501 -0.00000000000E+00 -0.00000000000E+00 -0.18964188978E+00  0.18970885050E+00  0.50400000000E-02 0. -1.
         31    1    1    2    0    0  0.89060469593E+00  0.12178025623E+01  0.33314404098E+02  0.33468167567E+02  0.28271010000E+01 0.  1.
        -31    1    1    2    0    0 -0.89060469593E+00 -0.12178025623E+01  0.22647155211E+02  0.22872742709E+02  0.28271010000E+01 0. -1.
<mgrwt>
<rscale>  0 0.65270246E+01</rscale>
<asrwt>0</asrwt>
<pdfrwt beam="1">  1        1 0.46586607E+00 0.65270246E+01</pdfrwt>
<pdfrwt beam="2">  1       -1 0.40306381E+00 0.65270246E+01</pdfrwt>
<totfact> 0.24891764E-02</totfact>
</mgrwt>
</event>
<event>
 4    1  0.4231559E-004  0.5763278E+01  0.7818608E-02  0.2447291E+00
         -1   -1    0    0    0  501 -0.00000000000E+00  0.00000000000E+00  0.29823152527E+02  0.29823152953E+02  0.50400000000E-02 0. -1.
          1   -1    0    0  501    0  0.00000000000E+00 -0.00000000000E+00 -0.27841290099E+00  0.27845851583E+00  0.50400000000E-02 0.  1.
         31    1    1    2    0    0  0.28615428135E+00  0.81188049664E-01  0.17238088751E+02  0.17470909525E+02  0.28271010000E+01 0. -1.
        -31    1    1    2    0    0 -0.28615428135E+00 -0.81188049664E-01  0.12306650875E+02  0.12630701944E+02  0.28271010000E+01 0.  1.
<mgrwt>
<rscale>  0 0.57632780E+01</rscale>
<asrwt>0</asrwt>
<pdfrwt beam="2">  1        1 0.58818854E+00 0.57632780E+01</pdfrwt>
<pdfrwt beam="1">  1       -1 0.24890118E+00 0.57632780E+01</pdfrwt>
<totfact> 0.59318033E-02</totfact>
</mgrwt>
</event>
<event>
 4    1  0.4231559E-004  0.7367834E+01  0.7818608E-02  0.2265434E+00
         -1   -1    0    0    0  501 -0.00000000000E+00  0.00000000000E+00  0.94859279899E+02  0.94859280033E+02  0.50400000000E-02 0.  1.
          1   -1    0    0  501    0  0.00000000000E+00 -0.00000000000E+00 -0.14302262123E+00  0.14311139641E+00  0.50400000000E-02 0. -1.
         31    1    1    2    0    0 -0.14999713893E+01 -0.18046128908E+01  0.50822911209E+02  0.50955542836E+02  0.28271010000E+01 0.  1.
        -31    1    1    2    0    0  0.14999713893E+01  0.18046128908E+01  0.43893346069E+02  0.44046848593E+02  0.28271010000E+01 0.  1.
<mgrwt>
<rscale>  0 0.73678345E+01</rscale>
<asrwt>0</asrwt>
<pdfrwt beam="2">  1        1 0.30458769E+00 0.73678345E+01</pdfrwt>
<pdfrwt beam="1">  1       -1 0.78554624E+00 0.73678345E+01</pdfrwt>
<totfact> 0.19284677E-03</totfact>
</mgrwt>
</event>
<event>
 4    1  0.4231559E-004  0.6015995E+01  0.7818608E-02  0.2413346E+00
          1   -1    0    0  501    0  0.00000000000E+00  0.00000000000E+00  0.50062551524E+02  0.50062551778E+02  0.50400000000E-02 0. -1.
         -1   -1    0    0    0  501 -0.00000000000E+00 -0.00000000000E+00 -0.18069946542E+00  0.18076973862E+00  0.50400000000E-02 0.  1.
         31    1    1    2    0    0  0.27497515584E-01 -0.18019842184E+00  0.16496611308E+02  0.16738097631E+02  0.28271010000E+01 0.  1.
        -31    1    1    2    0    0 -0.27497515584E-01  0.18019842184E+00  0.33385240751E+02  0.33505223886E+02  0.28271010000E+01 0. -1.
<mgrwt>
<rscale>  0 0.60159947E+01</rscale>
<asrwt>0</asrwt>
<pdfrwt beam="1">  1        1 0.41544694E+00 0.60159947E+01</pdfrwt>
<pdfrwt beam="2">  1       -1 0.38397568E+00 0.60159947E+01</pdfrwt>
<totfact> 0.52670288E-02</totfact>
</mgrwt>
</event>
<event>
 4    1  0.4231559E-004  0.6190960E+01  0.7818608E-02  0.2391213E+00
         -1   -1    0    0    0  501 -0.00000000000E+00  0.00000000000E+00  0.52309517468E+02  0.52309517710E+02  0.50400000000E-02 0.  1.
          1   -1    0    0  501    0  0.00000000000E+00 -0.00000000000E+00 -0.18314393377E+00  0.18321326937E+00  0.50400000000E-02 0. -1.
         31    1    1    2    0    0 -0.11160322464E+01 -0.33971767891E+00  0.30116797770E+02  0.30271685517E+02  0.28271010000E+01 0.  1.
        -31    1    1    2    0    0  0.11160322464E+01  0.33971767891E+00  0.22009575764E+02  0.22221045463E+02  0.28271010000E+01 0. -1.
<mgrwt>
<rscale>  0 0.61909602E+01</rscale>
<asrwt>0</asrwt>
<pdfrwt beam="2">  1        1 0.38921003E+00 0.61909602E+01</pdfrwt>
<pdfrwt beam="1">  1       -1 0.43404663E+00 0.61909602E+01</pdfrwt>
<totfact> 0.32275861E-02</totfact>
</mgrwt>
</event>
<event>
 4    1  0.4231559E-004  0.6766604E+01  0.7818608E-02  0.2325187E+00
          1   -1    0    0  501    0  0.00000000000E+00  0.00000000000E+00  0.85858763203E+02  0.85858763351E+02  0.50400000000E-02 0. -1.
         -1   -1    0    0    0  501 -0.00000000000E+00 -0.00000000000E+00 -0.13327269457E+00  0.13336795986E+00  0.50400000000E-02 0.  1.
         31    1    1    2    0    0 -0.28536544090E-02 -0.18371696852E+01  0.39290138471E+02  0.39434536661E+02  0.28271010000E+01 0. -1.
        -31    1    1    2    0    0  0.28536544090E-02  0.18371696852E+01  0.46435352038E+02  0.46557594650E+02  0.28271010000E+01 0. -1.
<mgrwt>
<rscale>  0 0.67666036E+01</rscale>
<asrwt>0</asrwt>
<pdfrwt beam="1">  1        1 0.71104311E+00 0.67666036E+01</pdfrwt>
<pdfrwt beam="2">  1       -1 0.28382453E+00 0.67666036E+01</pdfrwt>
<totfact> 0.81767713E-03</totfact>
</mgrwt>
</event>
<event>
 4    1  0.4231559E-004  0.5708558E+01  0.7818608E-02  0.2454972E+00
          1   -1    0    0  501    0  0.00000000000E+00  0.00000000000E+00  0.65017905924E+02  0.65017906119E+02  0.50400000000E-02 0. -1.
         -1   -1    0    0    0  501 -0.00000000000E+00 -0.00000000000E+00 -0.12525165780E+00  0.12535301904E+00  0.50400000000E-02 0.  1.
         31    1    1    2    0    0  0.34708875169E+00  0.15561294143E+00  0.31321132031E+02  0.31450763071E+02  0.28271010000E+01 0. -1.
        -31    1    1    2    0    0 -0.34708875169E+00 -0.15561294143E+00  0.33571522236E+02  0.33692496068E+02  0.28271010000E+01 0. -1.
<mgrwt>
<rscale>  0 0.57085579E+01</rscale>
<asrwt>0</asrwt>
<pdfrwt beam="1">  1        1 0.53865004E+00 0.57085579E+01</pdfrwt>
<pdfrwt beam="2">  1       -1 0.26665548E+00 0.57085579E+01</pdfrwt>
<totfact> 0.78608882E-02</totfact>
</mgrwt>
</event>
<event>
 4    1  0.4231559E-004  0.7266875E+01  0.7818608E-02  0.2274901E+00
          1   -1    0    0  501    0  0.00000000000E+00  0.00000000000E+00  0.85425238091E+02  0.85425238239E+02  0.50400000000E-02 0. -1.
         -1   -1    0    0    0  501 -0.00000000000E+00 -0.00000000000E+00 -0.15450169886E+00  0.15458388192E+00  0.50400000000E-02 0.  1.
         31    1    1    2    0    0  0.18955878989E+01  0.75273739755E+00  0.30570711395E+02  0.30768827770E+02  0.28271010000E+01 0.  1.
        -31    1    1    2    0    0 -0.18955878989E+01 -0.75273739755E+00  0.54700024997E+02  0.54810994352E+02  0.28271010000E+01 0.  1.
<mgrwt>
<rscale>  0 0.72668748E+01</rscale>
<asrwt>0</asrwt>
<pdfrwt beam="1">  1        1 0.70763385E+00 0.72668748E+01</pdfrwt>
<pdfrwt beam="2">  1       -1 0.32892065E+00 0.72668748E+01</pdfrwt>
<totfact> 0.46268879E-03</totfact>
</mgrwt>
</event>
<event>
 4    1  0.4231559E-004  0.5937117E+01  0.7818608E-02  0.2423680E+00
         -1   -1    0    0    0  501 -0.00000000000E+00  0.00000000000E+00  0.25136229242E+02  0.25136229747E+02  0.50400000000E-02 0. -1.
          1   -1    0    0  501    0  0.00000000000E+00 -0.00000000000E+00 -0.35056460942E+00  0.35060083710E+00  0.50400000000E-02 0.  1.
         31    1    1    2    0    0  0.49618969123E+00 -0.28192304107E+00  0.15410504565E+02  0.15678068625E+02  0.28271010000E+01 0.  1.
        -31    1    1    2    0    0 -0.49618969123E+00  0.28192304107E+00  0.93751600675E+01  0.98087619589E+01  0.28271010000E+01 0.  1.
<mgrwt>
<rscale>  0 0.59371173E+01</rscale>
<asrwt>0</asrwt>
<pdfrwt beam="2">  1        1 0.73722931E+00 0.59371173E+01</pdfrwt>
<pdfrwt beam="1">  1       -1 0.21074295E+00 0.59371173E+01</pdfrwt>
<totfact> 0.15716994E-02</totfact>
</mgrwt>
</event>
<event>
 4    1  0.4231559E-004  0.6386363E+01  0.7818608E-02  0.2367696E+00
          1   -1    0    0  501    0  0.00000000000E+00  0.00000000000E+00  0.55113086876E+02  0.55113087107E+02  0.50400000000E-02 0. -1.
         -1   -1    0    0    0  501 -0.00000000000E+00 -0.00000000000E+00 -0.18497428203E+00  0.18504293181E+00  0.50400000000E-02 0.  1.
         31    1    1    2    0    0  0.11031226789E+01 -0.54878465800E+00  0.34634991478E+02  0.34772017183E+02  0.28271010000E+01 0.  1.
        -31    1    1    2    0    0 -0.11031226789E+01  0.54878465800E+00  0.20293121116E+02  0.20526112855E+02  0.28271010000E+01 0. -1.
<mgrwt>
<rscale>  0 0.63863630E+01</rscale>
<asrwt>0</asrwt>
<pdfrwt beam="1">  1        1 0.45724363E+00 0.63863630E+01</pdfrwt>
<pdfrwt beam="2">  1       -1 0.39315511E+00 0.63863630E+01</pdfrwt>
<totfact> 0.31212261E-02</totfact>
</mgrwt>
</event>
<event>
 4    1  0.4231559E-004  0.7217289E+01  0.7818608E-02  0.2279630E+00
         -1   -1    0    0    0  501 -0.00000000000E+00  0.00000000000E+00  0.52976217039E+02  0.52976217279E+02  0.50400000000E-02 0. -1.
          1   -1    0    0  501    0  0.00000000000E+00 -0.00000000000E+00 -0.24578830563E+00  0.24583997394E+00  0.50400000000E-02 0.  1.
         31    1    1    2    0    0 -0.21155542173E+01 -0.25299595237E+00  0.31528445952E+02  0.31726565852E+02  0.28271010000E+01 0. -1.
        -31    1    1    2    0    0  0.21155542173E+01  0.25299595237E+00  0.21201982782E+02  0.21495491401E+02  0.28271010000E+01 0.  1.
<mgrwt>
<rscale>  0 0.72172892E+01</rscale>
<asrwt>0</asrwt>
<pdfrwt beam="2">  1        1 0.52170347E+00 0.72172892E+01</pdfrwt>
<pdfrwt beam="1">  1       -1 0.44007721E+00 0.72172892E+01</pdfrwt>
<totfact> 0.82282899E-03</totfact>
</mgrwt>
</event>
<event>
 4    1  0.4231559E-004  0.6957052E+01  0.7818608E-02  0.2305345E+00
         -1   -1    0    0    0  501 -0.00000000000E+00  0.00000000000E+00  0.73963163453E+02  0.73963163625E+02  0.50400000000E-02 0. -1.
          1   -1    0    0  501    0  0.00000000000E+00 -0.00000000000E+00 -0.16355789535E+00  0.16363553017E+00  0.50400000000E-02 0.  1.
         31    1    1    2    0    0 -0.91385575146E+00  0.15973918344E+01  0.27853471983E+02  0.28056999030E+02  0.28271010000E+01 0.  1.
        -31    1    1    2    0    0  0.91385575146E+00 -0.15973918344E+01  0.45946133575E+02  0.46069800125E+02  0.28271010000E+01 0.  1.
<mgrwt>
<rscale>  0 0.69570520E+01</rscale>
<asrwt>0</asrwt>
<pdfrwt beam="2">  1        1 0.34805062E+00 0.69570520E+01</pdfrwt>
<pdfrwt beam="1">  1       -1 0.61293224E+00 0.69570520E+01</pdfrwt>
<totfact> 0.35653692E-03</totfact>
</mgrwt>
</event>
<event>
 4    1  0.4231559E-004  0.6298372E+01  0.7818608E-02  0.2378136E+00
          1   -1    0    0  501    0  0.00000000000E+00  0.00000000000E+00  0.62255526311E+02  0.62255526515E+02  0.50400000000E-02 0.  1.
         -1   -1    0    0    0  501 -0.00000000000E+00 -0.00000000000E+00 -0.15926099244E+00  0.15934072083E+00  0.50400000000E-02 0. -1.
         31    1    1    2    0    0 -0.41123714229E+00 -0.53755992903E+00  0.43049837627E+02  0.43147874878E+02  0.28271010000E+01 0.  1.
        -31    1    1    2    0    0  0.41123714229E+00  0.53755992903E+00  0.19046427691E+02  0.19266992358E+02  0.28271010000E+01 0. -1.
<mgrwt>
<rscale>  0 0.62983717E+01</rscale>
<asrwt>0</asrwt>
<pdfrwt beam="1">  1        1 0.51608979E+00 0.62983717E+01</pdfrwt>
<pdfrwt beam="2">  1       -1 0.33879398E+00 0.62983717E+01</pdfrwt>
<totfact> 0.37426307E-02</totfact>
</mgrwt>
</event>
<event>
 4    1  0.4231559E-004  0.6446412E+01  0.7818608E-02  0.2360707E+00
          1   -1    0    0  501    0  0.00000000000E+00  0.00000000000E+00  0.30181031198E+02  0.30181031619E+02  0.50400000000E-02 0. -1.
         -1   -1    0    0    0  501 -0.00000000000E+00 -0.00000000000E+00 -0.34420580724E+00  0.34424270411E+00  0.50400000000E-02 0.  1.
         31    1    1    2    0    0  0.75882495059E+00  0.83558357313E+00  0.99014306188E+01  0.10358805123E+02  0.28271010000E+01 0.  1.
        -31    1    1    2    0    0 -0.75882495059E+00 -0.83558357313E+00  0.19935394772E+02  0.20166469200E+02  0.28271010000E+01 0. -1.
<mgrwt>
<rscale>  0 0.64464116E+01</rscale>
<asrwt>0</asrwt>
<pdfrwt beam="1">  1        1 0.25240433E+00 0.64464116E+01</pdfrwt>
<pdfrwt beam="2">  1       -1 0.72567750E+00 0.64464116E+01</pdfrwt>
<totfact> 0.44677784E-03</totfact>
</mgrwt>
</event>
<event>
 4    1  0.4231559E-004  0.6028924E+01  0.7818608E-02  0.2411674E+00
          1   -1    0    0  501    0  0.00000000000E+00  0.00000000000E+00  0.61449943318E+02  0.61449943525E+02  0.50400000000E-02 0.  1.
         -1   -1    0    0    0  501 -0.00000000000E+00 -0.00000000000E+00 -0.14783301245E+00  0.14791890065E+00  0.50400000000E-02 0. -1.
         31    1    1    2    0    0 -0.60468082586E+00 -0.84385452961E+00  0.31973460948E+02  0.32114987692E+02  0.28271010000E+01 0. -1.
        -31    1    1    2    0    0  0.60468082586E+00  0.84385452961E+00  0.29328649357E+02  0.29482874734E+02  0.28271010000E+01 0.  1.
<mgrwt>
<rscale>  0 0.60289242E+01</rscale>
<asrwt>0</asrwt>
<pdfrwt beam="1">  1        1 0.50933422E+00 0.60289242E+01</pdfrwt>
<pdfrwt beam="2">  1       -1 0.31454383E+00 0.60289242E+01</pdfrwt>
<totfact> 0.55587437E-02</totfact>
</mgrwt>
</event>
<event>
 4    1  0.4231559E-004  0.6603974E+01  0.7818608E-02  0.2342873E+00
          1   -1    0    0  501    0  0.00000000000E+00  0.00000000000E+00  0.56005607948E+02  0.56005608175E+02  0.50400000000E-02 0.  1.
         -1   -1    0    0    0  501 -0.00000000000E+00 -0.00000000000E+00 -0.19464622369E+00  0.19471146345E+00  0.50400000000E-02 0. -1.
         31    1    1    2    0    0  0.98862974234E+00  0.84327151760E+00  0.37313345088E+02  0.37442846010E+02  0.28271010000E+01 0.  1.
        -31    1    1    2    0    0 -0.98862974234E+00 -0.84327151760E+00  0.18497616636E+02  0.18757473628E+02  0.28271010000E+01 0. -1.
<mgrwt>
<rscale>  0 0.66039745E+01</rscale>
<asrwt>0</asrwt>
<pdfrwt beam="1">  1        1 0.46470356E+00 0.66039745E+01</pdfrwt>
<pdfrwt beam="2">  1       -1 0.41365583E+00 0.66039745E+01</pdfrwt>
<totfact> 0.21556971E-02</totfact>
</mgrwt>
</event>
<event>
 4    1  0.4231559E-004  0.5924960E+01  0.7818608E-02  0.2425294E+00
          1   -1    0    0  501    0  0.00000000000E+00  0.00000000000E+00  0.77548694988E+02  0.77548695151E+02  0.50400000000E-02 0. -1.
         -1   -1    0    0    0  501 -0.00000000000E+00 -0.00000000000E+00 -0.11311503847E+00  0.11322726495E+00  0.50400000000E-02 0.  1.
         31    1    1    2    0    0  0.57794616866E+00 -0.59911409685E+00  0.34767460704E+02  0.34892145009E+02  0.28271010000E+01 0.  1.
        -31    1    1    2    0    0 -0.57794616866E+00  0.59911409685E+00  0.42668119245E+02  0.42769777407E+02  0.28271010000E+01 0. -1.
<mgrwt>
<rscale>  0 0.59249600E+01</rscale>
<asrwt>0</asrwt>
<pdfrwt beam="1">  1        1 0.64216311E+00 0.59249600E+01</pdfrwt>
<pdfrwt beam="2">  1       -1 0.24095164E+00 0.59249600E+01</pdfrwt>
<totfact> 0.35785876E-02</totfact>
</mgrwt>
</event>
<event>
 4    1  0.4231559E-004  0.6000069E+01  0.7818608E-02  0.2415415E+00
         -1   -1    0    0    0  501 -0.00000000000E+00  0.00000000000E+00  0.27207168590E+02  0.27207169057E+02  0.50400000000E-02 0. -1.
          1   -1    0    0  501    0  0.00000000000E+00 -0.00000000000E+00 -0.33078314768E+00  0.33082154160E+00  0.50400000000E-02 0.  1.
         31    1    1    2    0    0 -0.89923390829E+00 -0.19375328880E+00  0.15282885175E+02  0.15569368686E+02  0.28271010000E+01 0. -1.
        -31    1    1    2    0    0  0.89923390829E+00  0.19375328880E+00  0.11593500267E+02  0.11968621912E+02  0.28271010000E+01 0.  1.
<mgrwt>
<rscale>  0 0.60000693E+01</rscale>
<asrwt>0</asrwt>
<pdfrwt beam="2">  1        1 0.69686308E+00 0.60000693E+01</pdfrwt>
<pdfrwt beam="1">  1       -1 0.22770337E+00 0.60000693E+01</pdfrwt>
<totfact> 0.21651678E-02</totfact>
</mgrwt>
</event>
<event>
 4    1  0.4231559E-004  0.5834600E+01  0.7818608E-02  0.2437461E+00
         -1   -1    0    0    0  501 -0.00000000000E+00  0.00000000000E+00  0.65582147673E+02  0.65582147867E+02  0.50400000000E-02 0.  1.
          1   -1    0    0  501    0  0.00000000000E+00 -0.00000000000E+00 -0.12972155449E+00  0.12981942574E+00  0.50400000000E-02 0. -1.
         31    1    1    2    0    0  0.23890719543E+00 -0.50983732660E+00  0.27675286174E+02  0.27825006300E+02  0.28271010000E+01 0. -1.
        -31    1    1    2    0    0 -0.23890719543E+00  0.50983732660E+00  0.37777139945E+02  0.37886960992E+02  0.28271010000E+01 0.  1.
<mgrwt>
<rscale>  0 0.58346003E+01</rscale>
<asrwt>0</asrwt>
<pdfrwt beam="2">  1        1 0.27614992E+00 0.58346003E+01</pdfrwt>
<pdfrwt beam="1">  1       -1 0.54335252E+00 0.58346003E+01</pdfrwt>
<totfact> 0.16146035E-02</totfact>
</mgrwt>
</event>
<event>
 4    1  0.4231559E-004  0.6117310E+01  0.7818608E-02  0.2400401E+00
         -1   -1    0    0    0  501 -0.00000000000E+00  0.00000000000E+00  0.59093499252E+02  0.59093499467E+02  0.50400000000E-02 0.  1.
          1   -1    0    0  501    0  0.00000000000E+00 -0.00000000000E+00 -0.15827438796E+00  0.15835461308E+00  0.50400000000E-02 0. -1.
         31    1    1    2    0    0 -0.11248142969E+01  0.68838803864E-01  0.32420225522E+02  0.32562761998E+02  0.28271010000E+01 0.  1.
        -31    1    1    2    0    0  0.11248142969E+01 -0.68838803864E-01  0.26514999342E+02  0.26689092082E+02  0.28271010000E+01 0. -1.
<mgrwt>
<rscale>  0 0.61173100E+01</rscale>
<asrwt>0</asrwt>
<pdfrwt beam="2">  1        1 0.33665588E+00 0.61173100E+01</pdfrwt>
<pdfrwt beam="1">  1       -1 0.48993579E+00 0.61173100E+01</pdfrwt>
<totfact> 0.21786644E-02</totfact>
</mgrwt>
</event>
<event>
 4    1  0.4231559E-004  0.6677559E+01  0.7818608E-02  0.2334782E+00
         -1   -1    0    0    0  501 -0.00000000000E+00  0.00000000000E+00  0.45557604313E+02  0.45557604591E+02  0.50400000000E-02 0. -1.
          1   -1    0    0  501    0  0.00000000000E+00 -0.00000000000E+00 -0.24466288327E+00  0.24471478919E+00  0.50400000000E-02 0.  1.
         31    1    1    2    0    0 -0.38346759767E+00 -0.10105783895E+01  0.12988649351E+02  0.13336634812E+02  0.28271010000E+01 0.  1.
        -31    1    1    2    0    0  0.38346759767E+00  0.10105783895E+01  0.32324292078E+02  0.32465684569E+02  0.28271010000E+01 0. -1.
<mgrwt>
<rscale>  0 0.66775594E+01</rscale>
<asrwt>0</asrwt>
<pdfrwt beam="2">  1        1 0.51893769E+00 0.66775594E+01</pdfrwt>
<pdfrwt beam="1">  1       -1 0.37872562E+00 0.66775594E+01</pdfrwt>
<totfact> 0.20889418E-02</totfact>
</mgrwt>
</event>
<event>
 4    1  0.4231559E-004  0.7212759E+01  0.7818608E-02  0.2280064E+00
         -1   -1    0    0    0  501 -0.00000000000E+00  0.00000000000E+00  0.48953031521E+02  0.48953031780E+02  0.50400000000E-02 0.  1.
          1   -1    0    0  501    0  0.00000000000E+00 -0.00000000000E+00 -0.26565853848E+00  0.26570634292E+00  0.50400000000E-02 0. -1.
         31    1    1    2    0    0  0.71826158925E+00  0.20745537794E+01  0.21339641317E+02  0.21637755538E+02  0.28271010000E+01 0.  1.
        -31    1    1    2    0    0 -0.71826158925E+00 -0.20745537794E+01  0.27347731665E+02  0.27580982585E+02  0.28271010000E+01 0. -1.
<mgrwt>
<rscale>  0 0.72127591E+01</rscale>
<asrwt>0</asrwt>
<pdfrwt beam="2">  1        1 0.56342946E+00 0.72127591E+01</pdfrwt>
<pdfrwt beam="1">  1       -1 0.40697496E+00 0.72127591E+01</pdfrwt>
<totfact> 0.87320886E-03</totfact>
</mgrwt>
</event>
<event>
 4    1  0.4231559E-004  0.6636926E+01  0.7818608E-02  0.2339231E+00
          1   -1    0    0  501    0  0.00000000000E+00  0.00000000000E+00  0.70018465867E+02  0.70018466048E+02  0.50400000000E-02 0.  1.
         -1   -1    0    0    0  501 -0.00000000000E+00 -0.00000000000E+00 -0.15723502635E+00  0.15731578151E+00  0.50400000000E-02 0. -1.
         31    1    1    2    0    0 -0.69777869466E+00  0.14925362432E+01  0.29089890415E+02  0.29273345964E+02  0.28271010000E+01 0. -1.
        -31    1    1    2    0    0  0.69777869466E+00 -0.14925362432E+01  0.40771340426E+02  0.40902435865E+02  0.28271010000E+01 0. -1.
<mgrwt>
<rscale>  0 0.66369256E+01</rscale>
<asrwt>0</asrwt>
<pdfrwt beam="1">  1        1 0.58026246E+00 0.66369256E+01</pdfrwt>
<pdfrwt beam="2">  1       -1 0.33459065E+00 0.66369256E+01</pdfrwt>
<totfact> 0.20231660E-02</totfact>
</mgrwt>
</event>
<event>
 4    1  0.4231559E-004  0.5959129E+01  0.7818608E-02  0.2420773E+00
         -1   -1    0    0    0  501 -0.00000000000E+00  0.00000000000E+00  0.50804416188E+02  0.50804416438E+02  0.50400000000E-02 0. -1.
          1   -1    0    0  501    0  0.00000000000E+00 -0.00000000000E+00 -0.17470816260E+00  0.17478084471E+00  0.50400000000E-02 0.  1.
         31    1    1    2    0    0 -0.39952569634E+00  0.79897594954E+00  0.27842821754E+02  0.28000235831E+02  0.28271010000E+01 0. -1.
        -31    1    1    2    0    0  0.39952569634E+00 -0.79897594954E+00  0.22786886272E+02  0.22978961451E+02  0.28271010000E+01 0. -1.
<mgrwt>
<rscale>  0 0.59591292E+01</rscale>
<asrwt>0</asrwt>
<pdfrwt beam="2">  1        1 0.37131268E+00 0.59591292E+01</pdfrwt>
<pdfrwt beam="1">  1       -1 0.42153167E+00 0.59591292E+01</pdfrwt>
<totfact> 0.45747315E-02</totfact>
</mgrwt>
</event>
<event>
 4    1  0.4231559E-004  0.6667530E+01  0.7818608E-02  0.2335876E+00
          1   -1    0    0  501    0  0.00000000000E+00  0.00000000000E+00  0.78061192182E+02  0.78061192345E+02  0.50400000000E-02 0.  1.
         -1   -1    0    0    0  501 -0.00000000000E+00 -0.00000000000E+00 -0.14233056013E+00  0.14241976670E+00  0.50400000000E-02 0. -1.
         31    1    1    2    0    0  0.15956274430E+01 -0.74238697915E+00  0.40788642567E+02  0.40924357392E+02  0.28271010000E+01 0. -1.
        -31    1    1    2    0    0 -0.15956274430E+01  0.74238697915E+00  0.37130219055E+02  0.37279254720E+02  0.28271010000E+01 0.  1.
<mgrwt>
<rscale>  0 0.66675296E+01</rscale>
<asrwt>0</asrwt>
<pdfrwt beam="1">  1        1 0.64664218E+00 0.66675296E+01</pdfrwt>
<pdfrwt beam="2">  1       -1 0.30301928E+00 0.66675296E+01</pdfrwt>
<totfact> 0.14501116E-02</totfact>
</mgrwt>
</event>
<event>
 4    1  0.4231559E-004  0.7054753E+01  0.7818608E-02  0.2295509E+00
          1   -1    0    0  501    0  0.00000000000E+00  0.00000000000E+00  0.97760659025E+02  0.97760659155E+02  0.50400000000E-02 0.  1.
         -1   -1    0    0    0  501 -0.00000000000E+00 -0.00000000000E+00 -0.12722392669E+00  0.12732371784E+00  0.50400000000E-02 0. -1.
         31    1    1    2    0    0  0.17083229924E+01 -0.83767706234E+00  0.36176975260E+02  0.36337117516E+02  0.28271010000E+01 0.  1.
        -31    1    1    2    0    0 -0.17083229924E+01  0.83767706234E+00  0.61456459838E+02  0.61550865357E+02  0.28271010000E+01 0. -1.
<mgrwt>
<rscale>  0 0.70547531E+01</rscale>
<asrwt>0</asrwt>
<pdfrwt beam="1">  1        1 0.80940633E+00 0.70547531E+01</pdfrwt>
<pdfrwt beam="2">  1       -1 0.27102006E+00 0.70547531E+01</pdfrwt>
<totfact> 0.19890511E-03</totfact>
</mgrwt>
</event>
<event>
 4    1  0.4231559E-004  0.5937864E+01  0.7818608E-02  0.2423581E+00
          1   -1    0    0  501    0  0.00000000000E+00  0.00000000000E+00  0.87042731778E+02  0.87042731924E+02  0.50400000000E-02 0.  1.
         -1   -1    0    0    0  501 -0.00000000000E+00 -0.00000000000E+00 -0.10120414623E+00  0.10132956535E+00  0.50400000000E-02 0. -1.
         31    1    1    2    0    0  0.66279570325E+00 -0.31282844783E+00  0.51304180417E+02  0.51387241492E+02  0.28271010000E+01 0.  1.
        -31    1    1    2    0    0 -0.66279570325E+00  0.31282844783E+00  0.35637347215E+02  0.35756819998E+02  0.28271010000E+01 0.  1.
<mgrwt>
<rscale>  0 0.59378637E+01</rscale>
<asrwt>0</asrwt>
<pdfrwt beam="1">  1        1 0.72056807E+00 0.59378637E+01</pdfrwt>
<pdfrwt beam="2">  1       -1 0.21567004E+00 0.59378637E+01</pdfrwt>
<totfact> 0.18600534E-02</totfact>
</mgrwt>
</event>
<event>
 4    1  0.4231559E-004  0.6113858E+01  0.7818608E-02  0.2400836E+00
          1   -1    0    0  501    0  0.00000000000E+00  0.00000000000E+00  0.47888401922E+02  0.47888402187E+02  0.50400000000E-02 0.  1.
         -1   -1    0    0    0  501 -0.00000000000E+00 -0.00000000000E+00 -0.19510453018E+00  0.19516961674E+00  0.50400000000E-02 0. -1.
         31    1    1    2    0    0  0.35173583845E+00 -0.65161088165E+00  0.16794694175E+02  0.17047069171E+02  0.28271010000E+01 0. -1.
        -31    1    1    2    0    0 -0.35173583845E+00  0.65161088165E+00  0.30898603217E+02  0.31036502633E+02  0.28271010000E+01 0.  1.
<mgrwt>
<rscale>  0 0.61138581E+01</rscale>
<asrwt>0</asrwt>
<pdfrwt beam="1">  1        1 0.39758861E+00 0.61138581E+01</pdfrwt>
<pdfrwt beam="2">  1       -1 0.41438226E+00 0.61138581E+01</pdfrwt>
<totfact> 0.40053748E-02</totfact>
</mgrwt>
</event>
<event>
 4    1  0.4231559E-004  0.6500237E+01  0.7818608E-02  0.2354534E+00
         -1   -1    0    0    0  501 -0.00000000000E+00  0.00000000000E+00  0.55058515897E+02  0.55058516128E+02  0.50400000000E-02 0.  1.
          1   -1    0    0  501    0  0.00000000000E+00 -0.00000000000E+00 -0.19182198743E+00  0.19188818739E+00  0.50400000000E-02 0. -1.
         31    1    1    2    0    0  0.26401344691E+00 -0.11580157702E+01  0.36588118954E+02  0.36716394870E+02  0.28271010000E+01 0.  1.
        -31    1    1    2    0    0 -0.26401344691E+00  0.11580157702E+01  0.18278574956E+02  0.18534009445E+02  0.28271010000E+01 0. -1.
<mgrwt>
<rscale>  0 0.65002366E+01</rscale>
<asrwt>0</asrwt>
<pdfrwt beam="2">  1        1 0.40765243E+00 0.65002366E+01</pdfrwt>
<pdfrwt beam="1">  1       -1 0.45684900E+00 0.65002366E+01</pdfrwt>
<totfact> 0.19219877E-02</totfact>
</mgrwt>
</event>
<event>
 4    1  0.4231559E-004  0.7872326E+01  0.7818608E-02  0.2221110E+00
         -1   -1    0    0    0  501 -0.00000000000E+00  0.00000000000E+00  0.51227503380E+02  0.51227503628E+02  0.50400000000E-02 0. -1.
          1   -1    0    0  501    0  0.00000000000E+00 -0.00000000000E+00 -0.30242134747E+00  0.30246334159E+00  0.50400000000E-02 0.  1.
         31    1    1    2    0    0 -0.58295841650E+00  0.20679645259E+01  0.36579773000E+02  0.36751715750E+02  0.28271010000E+01 0. -1.
        -31    1    1    2    0    0  0.58295841650E+00 -0.20679645259E+01  0.14345309033E+02  0.14778251220E+02  0.28271010000E+01 0. -1.
<mgrwt>
<rscale>  0 0.78723259E+01</rscale>
<asrwt>0</asrwt>
<pdfrwt beam="2">  1        1 0.64108178E+00 0.78723259E+01</pdfrwt>
<pdfrwt beam="1">  1       -1 0.42608582E+00 0.78723259E+01</pdfrwt>
<totfact> 0.27034330E-03</totfact>
</mgrwt>
</event>
<event>
 4    1  0.4231559E-004  0.5973646E+01  0.7818608E-02  0.2418866E+00
         -1   -1    0    0    0  501 -0.00000000000E+00  0.00000000000E+00  0.32890777937E+02  0.32890778323E+02  0.50400000000E-02 0. -1.
          1   -1    0    0  501    0  0.00000000000E+00 -0.00000000000E+00 -0.27121062725E+00  0.27125745323E+00  0.50400000000E-02 0.  1.
         31    1    1    2    0    0 -0.47924093758E+00  0.36531518712E+00  0.20484355604E+02  0.20687301701E+02  0.28271010000E+01 0. -1.
        -31    1    1    2    0    0  0.47924093758E+00 -0.36531518712E+00  0.12135211705E+02  0.12474734075E+02  0.28271010000E+01 0.  1.
<mgrwt>
<rscale>  0 0.59736459E+01</rscale>
<asrwt>0</asrwt>
<pdfrwt beam="2">  1        1 0.57359444E+00 0.59736459E+01</pdfrwt>
<pdfrwt beam="1">  1       -1 0.27420691E+00 0.59736459E+01</pdfrwt>
<totfact> 0.49225393E-02</totfact>
</mgrwt>
</event>
<event>
 4    1  0.4231559E-004  0.5811292E+01  0.7818608E-02  0.2440651E+00
          1   -1    0    0  501    0  0.00000000000E+00  0.00000000000E+00  0.36830828798E+02  0.36830829143E+02  0.50400000000E-02 0. -1.
         -1   -1    0    0    0  501 -0.00000000000E+00 -0.00000000000E+00 -0.22920322030E+00  0.22925862644E+00  0.50400000000E-02 0.  1.
         31    1    1    2    0    0 -0.54999961386E+00 -0.38117228837E+00  0.17982864500E+02  0.18216028864E+02  0.28271010000E+01 0. -1.
        -31    1    1    2    0    0  0.54999961386E+00  0.38117228837E+00  0.18618761077E+02  0.18844058905E+02  0.28271010000E+01 0. -1.
<mgrwt>
<rscale>  0 0.58112916E+01</rscale>
<asrwt>0</asrwt>
<pdfrwt beam="1">  1        1 0.30643874E+00 0.58112916E+01</pdfrwt>
<pdfrwt beam="2">  1       -1 0.48574246E+00 0.58112916E+01</pdfrwt>
<totfact> 0.30428304E-02</totfact>
</mgrwt>
</event>
<event>
 4    1  0.4231559E-004  0.6156446E+01  0.7818608E-02  0.2395496E+00
          1   -1    0    0  501    0  0.00000000000E+00  0.00000000000E+00  0.39231879671E+02  0.39231879995E+02  0.50400000000E-02 0. -1.
         -1   -1    0    0    0  501 -0.00000000000E+00 -0.00000000000E+00 -0.24149777434E+00  0.24155036040E+00  0.50400000000E-02 0.  1.
         31    1    1    2    0    0  0.10410440491E+01  0.29925183448E+00  0.23062965072E+02  0.23260829357E+02  0.28271010000E+01 0. -1.
        -31    1    1    2    0    0 -0.10410440491E+01 -0.29925183448E+00  0.15927416825E+02  0.16212600999E+02  0.28271010000E+01 0.  1.
<mgrwt>
<rscale>  0 0.61564457E+01</rscale>
<asrwt>0</asrwt>
<pdfrwt beam="1">  1        1 0.32639394E+00 0.61564457E+01</pdfrwt>
<pdfrwt beam="2">  1       -1 0.51182607E+00 0.61564457E+01</pdfrwt>
<totfact> 0.16877504E-02</totfact>
</mgrwt>
</event>
<event>
 4    1  0.4231559E-004  0.5760312E+01  0.7818608E-02  0.2447704E+00
          1   -1    0    0  501    0  0.00000000000E+00  0.00000000000E+00  0.42997638796E+02  0.42997639091E+02  0.50400000000E-02 0.  1.
         -1   -1    0    0    0  501 -0.00000000000E+00 -0.00000000000E+00 -0.19289130028E+00  0.19295713339E+00  0.50400000000E-02 0. -1.
         31    1    1    2    0    0  0.19955816194E+00 -0.49754170580E+00  0.20471078461E+02  0.20672322671E+02  0.28271010000E+01 0. -1.
        -31    1    1    2    0    0 -0.19955816194E+00  0.49754170580E+00  0.22333669035E+02  0.22518273553E+02  0.28271010000E+01 0.  1.
<mgrwt>
<rscale>  0 0.57603120E+01</rscale>
<asrwt>0</asrwt>
<pdfrwt beam="1">  1        1 0.35713007E+00 0.57603120E+01</pdfrwt>
<pdfrwt beam="2">  1       -1 0.40951515E+00 0.57603120E+01</pdfrwt>
<totfact> 0.61929292E-02</totfact>
</mgrwt>
</event>
<event>
 4    1  0.4231559E-004  0.5956357E+01  0.7818608E-02  0.2421139E+00
         -1   -1    0    0    0  501 -0.00000000000E+00  0.00000000000E+00  0.73093540592E+02  0.73093540766E+02  0.50400000000E-02 0.  1.
          1   -1    0    0  501    0  0.00000000000E+00 -0.00000000000E+00 -0.12129266743E+00  0.12139733429E+00  0.50400000000E-02 0. -1.
         31    1    1    2    0    0 -0.50186558477E+00 -0.59453830142E+00  0.42893299076E+02  0.42993405896E+02  0.28271010000E+01 0.  1.
        -31    1    1    2    0    0  0.50186558477E+00  0.59453830142E+00  0.30078948849E+02  0.30221532204E+02  0.28271010000E+01 0. -1.
<mgrwt>
<rscale>  0 0.59563574E+01</rscale>
<asrwt>0</asrwt>
<pdfrwt beam="2">  1        1 0.25830271E+00 0.59563574E+01</pdfrwt>
<pdfrwt beam="1">  1       -1 0.60539233E+00 0.59563574E+01</pdfrwt>
<totfact> 0.84743027E-03</totfact>
</mgrwt>
</event>
<event>
 4    1  0.4231559E-004  0.6339257E+01  0.7818608E-02  0.2373255E+00
          1   -1    0    0  501    0  0.00000000000E+00  0.00000000000E+00  0.43004397969E+02  0.43004398265E+02  0.50400000000E-02 0.  1.
         -1   -1    0    0    0  501 -0.00000000000E+00 -0.00000000000E+00 -0.23358923465E+00  0.23364360069E+00  0.50400000000E-02 0. -1.
         31    1    1    2    0    0 -0.19418031985E+00  0.84525934642E+00  0.13603022099E+02  0.13920735600E+02  0.28271010000E+01 0. -1.
        -31    1    1    2    0    0  0.19418031985E+00 -0.84525934642E+00  0.29167786635E+02  0.29317306265E+02  0.28271010000E+01 0.  1.
<mgrwt>
<rscale>  0 0.63392574E+01</rscale>
<asrwt>0</asrwt>
<pdfrwt beam="1">  1        1 0.35752238E+00 0.63392574E+01</pdfrwt>
<pdfrwt beam="2">  1       -1 0.49542500E+00 0.63392574E+01</pdfrwt>
<totfact> 0.16562120E-02</totfact>
</mgrwt>
</event>
<event>
 4    1  0.4231559E-004  0.5792769E+01  0.7818608E-02  0.2443201E+00
          1   -1    0    0  501    0  0.00000000000E+00  0.00000000000E+00  0.51432148572E+02  0.51432148819E+02  0.50400000000E-02 0. -1.
         -1   -1    0    0    0  501 -0.00000000000E+00 -0.00000000000E+00 -0.16306975632E+00  0.16314762342E+00  0.50400000000E-02 0.  1.
         31    1    1    2    0    0 -0.27005363782E-02 -0.56136215498E+00  0.23093226429E+02  0.23272403008E+02  0.28271010000E+01 0.  1.
        -31    1    1    2    0    0  0.27005363782E-02  0.56136215498E+00  0.28175852386E+02  0.28322893435E+02  0.28271010000E+01 0.  1.
<mgrwt>
<rscale>  0 0.57927690E+01</rscale>
<asrwt>0</asrwt>
<pdfrwt beam="1">  1        1 0.42662601E+00 0.57927690E+01</pdfrwt>
<pdfrwt beam="2">  1       -1 0.34668054E+00 0.57927690E+01</pdfrwt>
<totfact> 0.79584534E-02</totfact>
</mgrwt>
</event>
<event>
 4    1  0.4231559E-004  0.6319999E+01  0.7818608E-02  0.2375547E+00
          1   -1    0    0  501    0  0.00000000000E+00  0.00000000000E+00  0.80885426917E+02  0.80885427074E+02  0.50400000000E-02 0.  1.
         -1   -1    0    0    0  501 -0.00000000000E+00 -0.00000000000E+00 -0.12340201469E+00  0.12350489395E+00  0.50400000000E-02 0. -1.
         31    1    1    2    0    0 -0.13144304840E+00 -0.88557637712E+00  0.54372909457E+02  0.54453717097E+02  0.28271010000E+01 0. -1.
        -31    1    1    2    0    0  0.13144304840E+00  0.88557637712E+00  0.26389115445E+02  0.26555214871E+02  0.28271010000E+01 0. -1.
<mgrwt>
<rscale>  0 0.63199994E+01</rscale>
<asrwt>0</asrwt>
<pdfrwt beam="1">  1        1 0.66983853E+00 0.63199994E+01</pdfrwt>
<pdfrwt beam="2">  1       -1 0.26282600E+00 0.63199994E+01</pdfrwt>
<totfact> 0.18817765E-02</totfact>
</mgrwt>
</event>
<event>
 4    1  0.4231559E-004  0.6249708E+01  0.7818608E-02  0.2384014E+00
         -1   -1    0    0    0  501 -0.00000000000E+00  0.00000000000E+00  0.87522099401E+02  0.87522099546E+02  0.50400000000E-02 0. -1.
          1   -1    0    0  501    0  0.00000000000E+00 -0.00000000000E+00 -0.11151145999E+00  0.11162529869E+00  0.50400000000E-02 0.  1.
         31    1    1    2    0    0  0.65510980569E+00 -0.23730159353E+00  0.59611088581E+02  0.59682156988E+02  0.28271010000E+01 0. -1.
        -31    1    1    2    0    0 -0.65510980569E+00  0.23730159353E+00  0.27799499360E+02  0.27951567856E+02  0.28271010000E+01 0.  1.
<mgrwt>
<rscale>  0 0.62497077E+01</rscale>
<asrwt>0</asrwt>
<pdfrwt beam="2">  1        1 0.23758297E+00 0.62497077E+01</pdfrwt>
<pdfrwt beam="1">  1       -1 0.72461695E+00 0.62497077E+01</pdfrwt>
<totfact> 0.51358526E-03</totfact>
</mgrwt>
</event>
<event>
 4    1  0.4231559E-004  0.6466346E+01  0.7818608E-02  0.2358411E+00
         -1   -1    0    0    0  501 -0.00000000000E+00  0.00000000000E+00  0.42543232515E+02  0.42543232813E+02  0.50400000000E-02 0. -1.
          1   -1    0    0  501    0  0.00000000000E+00 -0.00000000000E+00 -0.24568643319E+00  0.24573812291E+00  0.50400000000E-02 0.  1.
         31    1    1    2    0    0 -0.10156504820E+01 -0.89355738786E+00  0.15892730551E+02  0.16198807831E+02  0.28271010000E+01 0.  1.
        -31    1    1    2    0    0  0.10156504820E+01  0.89355738786E+00  0.26404815530E+02  0.26590163105E+02  0.28271010000E+01 0. -1.
<mgrwt>
<rscale>  0 0.64663459E+01</rscale>
<asrwt>0</asrwt>
<pdfrwt beam="2">  1        1 0.52089860E+00 0.64663459E+01</pdfrwt>
<pdfrwt beam="1">  1       -1 0.35380915E+00 0.64663459E+01</pdfrwt>
<totfact> 0.29008655E-02</totfact>
</mgrwt>
</event>
<event>
 4    1  0.4231559E-004  0.6024578E+01  0.7818608E-02  0.2412236E+00
          1   -1    0    0  501    0  0.00000000000E+00  0.00000000000E+00  0.48695737612E+02  0.48695737872E+02  0.50400000000E-02 0. -1.
         -1   -1    0    0    0  501 -0.00000000000E+00 -0.00000000000E+00 -0.18630401879E+00  0.18637217877E+00  0.50400000000E-02 0.  1.
         31    1    1    2    0    0  0.10341721512E+01  0.65595903574E-02  0.23372261031E+02  0.23565327089E+02  0.28271010000E+01 0.  1.
        -31    1    1    2    0    0 -0.10341721512E+01 -0.65595903574E-02  0.25137172562E+02  0.25316782962E+02  0.28271010000E+01 0.  1.
<mgrwt>
<rscale>  0 0.60245776E+01</rscale>
<asrwt>0</asrwt>
<pdfrwt beam="1">  1        1 0.40419149E+00 0.60245776E+01</pdfrwt>
<pdfrwt beam="2">  1       -1 0.39579512E+00 0.60245776E+01</pdfrwt>
<totfact> 0.49369637E-02</totfact>
</mgrwt>
</event>
<event>
 4    1  0.4231559E-004  0.6788534E+01  0.7818608E-02  0.2322856E+00
          1   -1    0    0  501    0  0.00000000000E+00  0.00000000000E+00  0.64933824893E+02  0.64933825089E+02  0.50400000000E-02 0. -1.
         -1   -1    0    0    0  501 -0.00000000000E+00 -0.00000000000E+00 -0.17739155588E+00  0.17746313898E+00  0.50400000000E-02 0.  1.
         31    1    1    2    0    0 -0.47201200573E+00  0.18160159349E+01  0.33227458720E+02  0.33400257817E+02  0.28271010000E+01 0.  1.
        -31    1    1    2    0    0  0.47201200573E+00 -0.18160159349E+01  0.31528974618E+02  0.31711030411E+02  0.28271010000E+01 0.  1.
<mgrwt>
<rscale>  0 0.67885342E+01</rscale>
<asrwt>0</asrwt>
<pdfrwt beam="1">  1        1 0.53838569E+00 0.67885342E+01</pdfrwt>
<pdfrwt beam="2">  1       -1 0.37727923E+00 0.67885342E+01</pdfrwt>
<totfact> 0.17466220E-02</totfact>
</mgrwt>
</event>
<event>
 4    1  0.4231559E-004  0.7595751E+01  0.7818608E-02  0.2244819E+00
          1   -1    0    0  501    0  0.00000000000E+00  0.00000000000E+00  0.70165518723E+02  0.70165518904E+02  0.50400000000E-02 0.  1.
         -1   -1    0    0    0  501 -0.00000000000E+00 -0.00000000000E+00 -0.20553794517E+00  0.20559972885E+00  0.50400000000E-02 0. -1.
         31    1    1    2    0    0  0.73222213610E+00  0.22702247144E+01  0.42956575736E+02  0.43115542076E+02  0.28271010000E+01 0.  1.
        -31    1    1    2    0    0 -0.73222213610E+00 -0.22702247144E+01  0.27003405042E+02  0.27255576556E+02  0.28271010000E+01 0. -1.
<mgrwt>
<rscale>  0 0.75957506E+01</rscale>
<asrwt>0</asrwt>
<pdfrwt beam="1">  1        1 0.58187765E+00 0.75957506E+01</pdfrwt>
<pdfrwt beam="2">  1       -1 0.43703287E+00 0.75957506E+01</pdfrwt>
<totfact> 0.45437056E-03</totfact>
</mgrwt>
</event>
<event>
 4    1  0.4231559E-004  0.6046779E+01  0.7818608E-02  0.2409375E+00
          1   -1    0    0  501    0  0.00000000000E+00  0.00000000000E+00  0.57343791323E+02  0.57343791544E+02  0.50400000000E-02 0.  1.
         -1   -1    0    0    0  501 -0.00000000000E+00 -0.00000000000E+00 -0.15936486870E+00  0.15944454514E+00  0.50400000000E-02 0. -1.
         31    1    1    2    0    0  0.52726286042E+00  0.89264931366E+00  0.26013094633E+02  0.26186798608E+02  0.28271010000E+01 0. -1.
        -31    1    1    2    0    0 -0.52726286042E+00 -0.89264931366E+00  0.31171331821E+02  0.31316437481E+02  0.28271010000E+01 0.  1.
<mgrwt>
<rscale>  0 0.60467786E+01</rscale>
<asrwt>0</asrwt>
<pdfrwt beam="1">  1        1 0.47547699E+00 0.60467786E+01</pdfrwt>
<pdfrwt beam="2">  1       -1 0.33894015E+00 0.60467786E+01</pdfrwt>
<totfact> 0.55746090E-02</totfact>
</mgrwt>
</event>
<event>
 4    1  0.4231559E-004  0.6133972E+01  0.7818608E-02  0.2398306E+00
          1   -1    0    0  501    0  0.00000000000E+00  0.00000000000E+00  0.49672718203E+02  0.49672718458E+02  0.50400000000E-02 0. -1.
         -1   -1    0    0    0  501 -0.00000000000E+00 -0.00000000000E+00 -0.18933378694E+00  0.18940085659E+00  0.50400000000E-02 0.  1.
         31    1    1    2    0    0 -0.42500846478E+00  0.86051044068E+00  0.19035311740E+02  0.19268022823E+02  0.28271010000E+01 0.  1.
        -31    1    1    2    0    0  0.42500846478E+00 -0.86051044068E+00  0.30448072675E+02  0.30594096491E+02  0.28271010000E+01 0. -1.
<mgrwt>
<rscale>  0 0.61339717E+01</rscale>
<asrwt>0</asrwt>
<pdfrwt beam="1">  1        1 0.41229489E+00 0.61339717E+01</pdfrwt>
<pdfrwt beam="2">  1       -1 0.40223511E+00 0.61339717E+01</pdfrwt>
<totfact> 0.41768388E-02</totfact>
</mgrwt>
</event>
<event>
 4    1  0.4231559E-004  0.5899961E+01  0.7818608E-02  0.2428628E+00
         -1   -1    0    0    0  501 -0.00000000000E+00  0.00000000000E+00  0.30657796707E+02  0.30657797121E+02  0.50400000000E-02 0. -1.
          1   -1    0    0  501    0  0.00000000000E+00 -0.00000000000E+00 -0.28383273406E+00  0.28387747801E+00  0.50400000000E-02 0.  1.
         31    1    1    2    0    0  0.79623367423E+00  0.21036901391E+00  0.14254105389E+02  0.14555076904E+02  0.28271010000E+01 0. -1.
        -31    1    1    2    0    0 -0.79623367423E+00 -0.21036901391E+00  0.16119858584E+02  0.16386597695E+02  0.28271010000E+01 0. -1.
<mgrwt>
<rscale>  0 0.58999610E+01</rscale>
<asrwt>0</asrwt>
<pdfrwt beam="2">  1        1 0.59968285E+00 0.58999610E+01</pdfrwt>
<pdfrwt beam="1">  1       -1 0.25584741E+00 0.58999610E+01</pdfrwt>
<totfact> 0.47510596E-02</totfact>
</mgrwt>
</event>
<event>
 4    1  0.4231559E-004  0.6717304E+01  0.7818608E-02  0.2330474E+00
          1   -1    0    0  501    0  0.00000000000E+00  0.00000000000E+00  0.61172029217E+02  0.61172029424E+02  0.50400000000E-02 0.  1.
         -1   -1    0    0    0  501 -0.00000000000E+00 -0.00000000000E+00 -0.18437225540E+00  0.18444112926E+00  0.50400000000E-02 0. -1.
         31    1    1    2    0    0  0.34466473810E+00 -0.12752975967E+01  0.41839482056E+02  0.41955690157E+02  0.28271010000E+01 0.  1.
        -31    1    1    2    0    0 -0.34466473810E+00  0.12752975967E+01  0.19148174905E+02  0.19400780397E+02  0.28271010000E+01 0. -1.
<mgrwt>
<rscale>  0 0.67173043E+01</rscale>
<asrwt>0</asrwt>
<pdfrwt beam="1">  1        1 0.50733823E+00 0.67173043E+01</pdfrwt>
<pdfrwt beam="2">  1       -1 0.39200973E+00 0.67173043E+01</pdfrwt>
<totfact> 0.19428804E-02</totfact>
</mgrwt>
</event>
<event>
 4    1  0.4231559E-004  0.6239594E+01  0.7818608E-02  0.2385246E+00
          1   -1    0    0  501    0  0.00000000000E+00  0.00000000000E+00  0.55311110447E+02  0.55311110677E+02  0.50400000000E-02 0. -1.
         -1   -1    0    0    0  501 -0.00000000000E+00 -0.00000000000E+00 -0.17593437576E+00  0.17600655151E+00  0.50400000000E-02 0.  1.
         31    1    1    2    0    0 -0.41169590892E+00 -0.10540275343E+01  0.33600034349E+02  0.33737742602E+02  0.28271010000E+01 0. -1.
        -31    1    1    2    0    0  0.41169590892E+00  0.10540275343E+01  0.21535141723E+02  0.21749374627E+02  0.28271010000E+01 0.  1.
<mgrwt>
<rscale>  0 0.62395944E+01</rscale>
<asrwt>0</asrwt>
<pdfrwt beam="1">  1        1 0.45880631E+00 0.62395944E+01</pdfrwt>
<pdfrwt beam="2">  1       -1 0.37401388E+00 0.62395944E+01</pdfrwt>
<totfact> 0.40347536E-02</totfact>
</mgrwt>
</event>
<event>
 4    1  0.4231559E-004  0.6182178E+01  0.7818608E-02  0.2392299E+00
          1   -1    0    0  501    0  0.00000000000E+00  0.00000000000E+00  0.60844686974E+02  0.60844687183E+02  0.50400000000E-02 0. -1.
         -1   -1    0    0    0  501 -0.00000000000E+00 -0.00000000000E+00 -0.15699573983E+00  0.15707661801E+00  0.50400000000E-02 0.  1.
         31    1    1    2    0    0  0.10390463553E+01 -0.86042384737E-01  0.37146666244E+02  0.37268677649E+02  0.28271010000E+01 0. -1.
        -31    1    1    2    0    0 -0.10390463553E+01  0.86042384737E-01  0.23541024990E+02  0.23733086152E+02  0.28271010000E+01 0.  1.
<mgrwt>
<rscale>  0 0.61821776E+01</rscale>
<asrwt>0</asrwt>
<pdfrwt beam="1">  1        1 0.50440526E+00 0.61821776E+01</pdfrwt>
<pdfrwt beam="2">  1       -1 0.33397021E+00 0.61821776E+01</pdfrwt>
<totfact> 0.44921881E-02</totfact>
</mgrwt>
</event>
<event>
 4    1  0.4231559E-004  0.6623877E+01  0.7818608E-02  0.2340670E+00
          1   -1    0    0  501    0  0.00000000000E+00  0.00000000000E+00  0.82236219931E+02  0.82236220085E+02  0.50400000000E-02 0. -1.
         -1   -1    0    0    0  501 -0.00000000000E+00 -0.00000000000E+00 -0.13333551234E+00  0.13343073278E+00  0.50400000000E-02 0.  1.
         31    1    1    2    0    0  0.19432962248E+00  0.37980527676E+00  0.61838874100E+02  0.61904934101E+02  0.28271010000E+01 0. -1.
        -31    1    1    2    0    0 -0.19432962248E+00 -0.37980527676E+00  0.20264010319E+02  0.20464716717E+02  0.28271010000E+01 0.  1.
<mgrwt>
<rscale>  0 0.66238770E+01</rscale>
<asrwt>0</asrwt>
<pdfrwt beam="1">  1        1 0.68108990E+00 0.66238770E+01</pdfrwt>
<pdfrwt beam="2">  1       -1 0.28393861E+00 0.66238770E+01</pdfrwt>
<totfact> 0.12201264E-02</totfact>
</mgrwt>
</event>
<event>
 4    1  0.4231559E-004  0.5821181E+01  0.7818608E-02  0.2439295E+00
         -1   -1    0    0    0  501 -0.00000000000E+00  0.00000000000E+00  0.65211897019E+02  0.65211897213E+02  0.50400000000E-02 0.  1.
          1   -1    0    0  501    0  0.00000000000E+00 -0.00000000000E+00 -0.12985878431E+00  0.12995655221E+00  0.50400000000E-02 0. -1.
         31    1    1    2    0    0  0.62839380562E+00 -0.28777014956E+00  0.32953094726E+02  0.33081363976E+02  0.28271010000E+01 0.  1.
        -31    1    1    2    0    0 -0.62839380562E+00  0.28777014956E+00  0.32128943508E+02  0.32260489790E+02  0.28271010000E+01 0.  1.
<mgrwt>
<rscale>  0 0.58211814E+01</rscale>
<asrwt>0</asrwt>
<pdfrwt beam="2">  1        1 0.27643815E+00 0.58211814E+01</pdfrwt>
<pdfrwt beam="1">  1       -1 0.54029216E+00 0.58211814E+01</pdfrwt>
<totfact> 0.16866764E-02</totfact>
</mgrwt>
</event>
<event>
 4    1  0.4231559E-004  0.5740663E+01  0.7818608E-02  0.2450450E+00
          1   -1    0    0  501    0  0.00000000000E+00  0.00000000000E+00  0.38251114788E+02  0.38251115120E+02  0.50400000000E-02 0. -1.
         -1   -1    0    0    0  501 -0.00000000000E+00 -0.00000000000E+00 -0.21535743191E+00  0.21541639928E+00  0.50400000000E-02 0.  1.
         31    1    1    2    0    0  0.19671016228E-01  0.47667576519E+00  0.19934078821E+02  0.20139205676E+02  0.28271010000E+01 0. -1.
        -31    1    1    2    0    0 -0.19671016228E-01 -0.47667576519E+00  0.18101678535E+02  0.18327325844E+02  0.28271010000E+01 0. -1.
<mgrwt>
<rscale>  0 0.57406628E+01</rscale>
<asrwt>0</asrwt>
<pdfrwt beam="1">  1        1 0.31806820E+00 0.57406628E+01</pdfrwt>
<pdfrwt beam="2">  1       -1 0.45667603E+00 0.57406628E+01</pdfrwt>
<totfact> 0.43215777E-02</totfact>
</mgrwt>
</event>
<event>
 4    1  0.4231559E-004  0.7044936E+01  0.7818608E-02  0.2296487E+00
          1   -1    0    0  501    0  0.00000000000E+00  0.00000000000E+00  0.57999257804E+02  0.57999258023E+02  0.50400000000E-02 0. -1.
         -1   -1    0    0    0  501 -0.00000000000E+00 -0.00000000000E+00 -0.21390008556E+00  0.21395945458E+00  0.50400000000E-02 0.  1.
         31    1    1    2    0    0  0.28695993592E+00 -0.18521996153E+01  0.21043614354E+02  0.21315233861E+02  0.28271010000E+01 0.  1.
        -31    1    1    2    0    0 -0.28695993592E+00  0.18521996153E+01  0.36741743364E+02  0.36897983616E+02  0.28271010000E+01 0. -1.
<mgrwt>
<rscale>  0 0.70449359E+01</rscale>
<asrwt>0</asrwt>
<pdfrwt beam="1">  1        1 0.48134761E+00 0.70449359E+01</pdfrwt>
<pdfrwt beam="2">  1       -1 0.45446418E+00 0.70449359E+01</pdfrwt>
<totfact> 0.98839832E-03</totfact>
</mgrwt>
</event>
<event>
 4    1  0.4231559E-004  0.6454919E+01  0.7818608E-02  0.2359726E+00
         -1   -1    0    0    0  501 -0.00000000000E+00  0.00000000000E+00  0.60669977914E+02  0.60669978123E+02  0.50400000000E-02 0.  1.
          1   -1    0    0  501    0  0.00000000000E+00 -0.00000000000E+00 -0.17165388614E+00  0.17172786096E+00  0.50400000000E-02 0. -1.
         31    1    1    2    0    0 -0.96465102671E+00  0.83581462588E-01  0.41740926836E+02  0.41847759924E+02  0.28271010000E+01 0.  1.
        -31    1    1    2    0    0  0.96465102671E+00 -0.83581462588E-01  0.18757397192E+02  0.18993946060E+02  0.28271010000E+01 0. -1.
<mgrwt>
<rscale>  0 0.64549188E+01</rscale>
<asrwt>0</asrwt>
<pdfrwt beam="2">  1        1 0.36504580E+00 0.64549188E+01</pdfrwt>
<pdfrwt beam="1">  1       -1 0.50308179E+00 0.64549188E+01</pdfrwt>
<totfact> 0.13701382E-02</totfact>
</mgrwt>
</event>
<event>
 4    1  0.4231559E-004  0.6334345E+01  0.7818608E-02  0.2373838E+00
         -1   -1    0    0    0  501 -0.00000000000E+00  0.00000000000E+00  0.55834619623E+02  0.55834619851E+02  0.50400000000E-02 0. -1.
          1   -1    0    0  501    0  0.00000000000E+00 -0.00000000000E+00 -0.17961967241E+00  0.17969036790E+00  0.50400000000E-02 0.  1.
         31    1    1    2    0    0  0.52946961941E+00 -0.13183135796E+01  0.26570879529E+02  0.26758595400E+02  0.28271010000E+01 0.  1.
        -31    1    1    2    0    0 -0.52946961941E+00  0.13183135796E+01  0.29084120422E+02  0.29255714819E+02  0.28271010000E+01 0. -1.
<mgrwt>
<rscale>  0 0.63343452E+01</rscale>
<asrwt>0</asrwt>
<pdfrwt beam="2">  1        1 0.38183140E+00 0.63343452E+01</pdfrwt>
<pdfrwt beam="1">  1       -1 0.46316551E+00 0.63343452E+01</pdfrwt>
<totfact> 0.22091055E-02</totfact>
</mgrwt>
</event>
<event>
 4    1  0.4231559E-004  0.5914912E+01  0.7818608E-02  0.2426631E+00
          1   -1    0    0  501    0  0.00000000000E+00  0.00000000000E+00  0.10291800310E+03  0.10291800322E+03  0.50400000000E-02 0. -1.
         -1   -1    0    0    0  501 -0.00000000000E+00 -0.00000000000E+00 -0.84910730258E-01  0.85060177010E-01  0.50400000000E-02 0.  1.
         31    1    1    2    0    0  0.27918029531E-01  0.60606296286E+00  0.62235111721E+02  0.62302244925E+02  0.28271010000E+01 0. -1.
        -31    1    1    2    0    0 -0.27918029531E-01 -0.60606296286E+00  0.40597980646E+02  0.40700818473E+02  0.28271010000E+01 0.  1.
<mgrwt>
<rscale>  0 0.59149120E+01</rscale>
<asrwt>0</asrwt>
<pdfrwt beam="1">  1        1 0.85170140E+00 0.59149120E+01</pdfrwt>
<pdfrwt beam="2">  1       -1 0.18105628E+00 0.59149120E+01</pdfrwt>
<totfact> 0.30636759E-03</totfact>
</mgrwt>
</event>
<event>
 4    1  0.4231559E-004  0.6541818E+01  0.7818608E-02  0.2349823E+00
         -1   -1    0    0    0  501 -0.00000000000E+00  0.00000000000E+00  0.39790105488E+02  0.39790105807E+02  0.50400000000E-02 0. -1.
          1   -1    0    0  501    0  0.00000000000E+00 -0.00000000000E+00 -0.26885811492E+00  0.26890535056E+00  0.50400000000E-02 0.  1.
         31    1    1    2    0    0 -0.79393382529E+00 -0.44899769205E+00  0.11376943724E+02  0.11758370568E+02  0.28271010000E+01 0. -1.
        -31    1    1    2    0    0  0.79393382529E+00  0.44899769205E+00  0.28144303649E+02  0.28300640590E+02  0.28271010000E+01 0. -1.
<mgrwt>
<rscale>  0 0.65418179E+01</rscale>
<asrwt>0</asrwt>
<pdfrwt beam="2">  1        1 0.56946081E+00 0.65418179E+01</pdfrwt>
<pdfrwt beam="1">  1       -1 0.33123593E+00 0.65418179E+01</pdfrwt>
<totfact> 0.23803509E-02</totfact>
</mgrwt>
</event>
<event>
 4    1  0.4231559E-004  0.6596751E+01  0.7818608E-02  0.2343675E+00
         -1   -1    0    0    0  501 -0.00000000000E+00  0.00000000000E+00  0.46815880954E+02  0.46815881225E+02  0.50400000000E-02 0.  1.
          1   -1    0    0  501    0  0.00000000000E+00 -0.00000000000E+00 -0.23235680518E+00  0.23241145952E+00  0.50400000000E-02 0. -1.
         31    1    1    2    0    0  0.24897634108E+00 -0.30044473152E+00  0.35085586978E+02  0.35201465452E+02  0.28271010000E+01 0.  1.
        -31    1    1    2    0    0 -0.24897634108E+00  0.30044473152E+00  0.11497937170E+02  0.11846827233E+02  0.28271010000E+01 0. -1.
<mgrwt>
<rscale>  0 0.65967509E+01</rscale>
<asrwt>0</asrwt>
<pdfrwt beam="2">  1        1 0.49304149E+00 0.65967509E+01</pdfrwt>
<pdfrwt beam="1">  1       -1 0.38902820E+00 0.65967509E+01</pdfrwt>
<totfact> 0.23376695E-02</totfact>
</mgrwt>
</event>
<event>
 4    1  0.4231559E-004  0.6481061E+01  0.7818608E-02  0.2356724E+00
          1   -1    0    0  501    0  0.00000000000E+00  0.00000000000E+00  0.63356579238E+02  0.63356579438E+02  0.50400000000E-02 0.  1.
         -1   -1    0    0    0  501 -0.00000000000E+00 -0.00000000000E+00 -0.16570650552E+00  0.16578313415E+00  0.50400000000E-02 0. -1.
         31    1    1    2    0    0 -0.61929713154E+00  0.31200491281E+00  0.17638880291E+02  0.17877457146E+02  0.28271010000E+01 0. -1.
        -31    1    1    2    0    0  0.61929713154E+00 -0.31200491281E+00  0.45551992441E+02  0.45644905427E+02  0.28271010000E+01 0.  1.
<mgrwt>
<rscale>  0 0.64810609E+01</rscale>
<asrwt>0</asrwt>
<pdfrwt beam="1">  1        1 0.52524734E+00 0.64810609E+01</pdfrwt>
<pdfrwt beam="2">  1       -1 0.35247858E+00 0.64810609E+01</pdfrwt>
<totfact> 0.28266598E-02</totfact>
</mgrwt>
</event>
<event>
 4    1  0.4231559E-004  0.6144704E+01  0.7818608E-02  0.2396962E+00
          1   -1    0    0  501    0  0.00000000000E+00  0.00000000000E+00  0.70129966940E+02  0.70129967121E+02  0.50400000000E-02 0.  1.
         -1   -1    0    0    0  501 -0.00000000000E+00 -0.00000000000E+00 -0.13455055572E+00  0.13464491689E+00  0.50400000000E-02 0. -1.
         31    1    1    2    0    0  0.87916405960E-01  0.11947251783E+01  0.33758190443E+02  0.33897537073E+02  0.28271010000E+01 0. -1.
        -31    1    1    2    0    0 -0.87916405960E-01 -0.11947251783E+01  0.36237225941E+02  0.36367074965E+02  0.28271010000E+01 0. -1.
<mgrwt>
<rscale>  0 0.61447042E+01</rscale>
<asrwt>0</asrwt>
<pdfrwt beam="1">  1        1 0.58099697E+00 0.61447042E+01</pdfrwt>
<pdfrwt beam="2">  1       -1 0.28643922E+00 0.61447042E+01</pdfrwt>
<totfact> 0.38524887E-02</totfact>
</mgrwt>
</event>
<event>
 4    1  0.4231559E-004  0.5990849E+01  0.7818608E-02  0.2416616E+00
         -1   -1    0    0    0  501 -0.00000000000E+00  0.00000000000E+00  0.39198996754E+02  0.39198997078E+02  0.50400000000E-02 0. -1.
          1   -1    0    0  501    0  0.00000000000E+00 -0.00000000000E+00 -0.22886984893E+00  0.22892533575E+00  0.50400000000E-02 0.  1.
         31    1    1    2    0    0  0.72538327923E+00  0.66843820098E+00  0.20038763477E+02  0.20261232250E+02  0.28271010000E+01 0.  1.
        -31    1    1    2    0    0 -0.72538327923E+00 -0.66843820098E+00  0.18931363428E+02  0.19166690164E+02  0.28271010000E+01 0.  1.
<mgrwt>
<rscale>  0 0.59908493E+01</rscale>
<asrwt>0</asrwt>
<pdfrwt beam="2">  1        1 0.48522152E+00 0.59908493E+01</pdfrwt>
<pdfrwt beam="1">  1       -1 0.32601765E+00 0.59908493E+01</pdfrwt>
<totfact> 0.60401206E-02</totfact>
</mgrwt>
</event>
<event>
 4    1  0.4231559E-004  0.7029109E+01  0.7818608E-02  0.2298069E+00
         -1   -1    0    0    0  501 -0.00000000000E+00  0.00000000000E+00  0.97507376373E+02  0.97507376503E+02  0.50400000000E-02 0.  1.
          1   -1    0    0  501    0  0.00000000000E+00 -0.00000000000E+00 -0.12662828842E+00  0.12672854859E+00  0.50400000000E-02 0. -1.
         31    1    1    2    0    0  0.37749603103E+00  0.18275070681E+01  0.61700371430E+02  0.61793289442E+02  0.28271010000E+01 0.  1.
        -31    1    1    2    0    0 -0.37749603103E+00 -0.18275070681E+01  0.35680376654E+02  0.35840815610E+02  0.28271010000E+01 0. -1.
<mgrwt>
<rscale>  0 0.70291089E+01</rscale>
<asrwt>0</asrwt>
<pdfrwt beam="2">  1        1 0.26975292E+00 0.70291089E+01</pdfrwt>
<pdfrwt beam="1">  1       -1 0.80730709E+00 0.70291089E+01</pdfrwt>
<totfact> 0.21919033E-03</totfact>
</mgrwt>
</event>
<event>
 4    1  0.4231559E-004  0.6735435E+01  0.7818608E-02  0.2328522E+00
          1   -1    0    0  501    0  0.00000000000E+00  0.00000000000E+00  0.62623097089E+02  0.62623097292E+02  0.50400000000E-02 0.  1.
         -1   -1    0    0    0  501 -0.00000000000E+00 -0.00000000000E+00 -0.18107234818E+00  0.18114247673E+00  0.50400000000E-02 0. -1.
         31    1    1    2    0    0 -0.10576138162E+01 -0.14896531237E+01  0.32216867188E+02  0.32392231243E+02  0.28271010000E+01 0. -1.
        -31    1    1    2    0    0  0.10576138162E+01  0.14896531237E+01  0.30225157553E+02  0.30412008526E+02  0.28271010000E+01 0. -1.
<mgrwt>
<rscale>  0 0.67354346E+01</rscale>
<asrwt>0</asrwt>
<pdfrwt beam="1">  1        1 0.51930940E+00 0.67354346E+01</pdfrwt>
<pdfrwt beam="2">  1       -1 0.38504319E+00 0.67354346E+01</pdfrwt>
<totfact> 0.19024054E-02</totfact>
</mgrwt>
</event>
<event>
 4    1  0.4231559E-004  0.6597646E+01  0.7818608E-02  0.2343575E+00
         -1   -1    0    0    0  501 -0.00000000000E+00  0.00000000000E+00  0.65269379941E+02  0.65269380136E+02  0.50400000000E-02 0. -1.
          1   -1    0    0  501    0  0.00000000000E+00 -0.00000000000E+00 -0.16668973165E+00  0.16676590850E+00  0.50400000000E-02 0.  1.
         31    1    1    2    0    0 -0.13506325278E+01 -0.28902148783E+00  0.22722946605E+02  0.22939759025E+02  0.28271010000E+01 0.  1.
        -31    1    1    2    0    0  0.13506325278E+01  0.28902148783E+00  0.42379743604E+02  0.42496387019E+02  0.28271010000E+01 0. -1.
<mgrwt>
<rscale>  0 0.65976463E+01</rscale>
<asrwt>0</asrwt>
<pdfrwt beam="2">  1        1 0.35459084E+00 0.65976463E+01</pdfrwt>
<pdfrwt beam="1">  1       -1 0.54107184E+00 0.65976463E+01</pdfrwt>
<totfact> 0.83208121E-03</totfact>
</mgrwt>
</event>
<event>
 4    1  0.4231559E-004  0.5876463E+01  0.7818608E-02  0.2431785E+00
          1   -1    0    0  501    0  0.00000000000E+00  0.00000000000E+00  0.58873129955E+02  0.58873130170E+02  0.50400000000E-02 0.  1.
         -1   -1    0    0    0  501 -0.00000000000E+00 -0.00000000000E+00 -0.14659729928E+00  0.14668391103E+00  0.50400000000E-02 0. -1.
         31    1    1    2    0    0  0.24431952890E+00 -0.65855888595E+00  0.25508471914E+02  0.25674267882E+02  0.28271010000E+01 0. -1.
        -31    1    1    2    0    0 -0.24431952890E+00  0.65855888595E+00  0.33218060742E+02  0.33345546200E+02  0.28271010000E+01 0.  1.
<mgrwt>
<rscale>  0 0.58764629E+01</rscale>
<asrwt>0</asrwt>
<pdfrwt beam="1">  1        1 0.48801712E+00 0.58764629E+01</pdfrwt>
<pdfrwt beam="2">  1       -1 0.31188991E+00 0.58764629E+01</pdfrwt>
<totfact> 0.71050700E-02</totfact>
</mgrwt>
</event>
<event>
 4    1  0.4231559E-004  0.5943286E+01  0.7818608E-02  0.2422864E+00
         -1   -1    0    0    0  501 -0.00000000000E+00  0.00000000000E+00  0.24132188678E+02  0.24132189204E+02  0.50400000000E-02 0.  1.
          1   -1    0    0  501    0  0.00000000000E+00 -0.00000000000E+00 -0.36591083876E+00  0.36594554721E+00  0.50400000000E-02 0. -1.
         31    1    1    2    0    0 -0.34027163134E+00  0.69439638174E+00  0.98629885050E+01  0.10289266905E+02  0.28271010000E+01 0. -1.
        -31    1    1    2    0    0  0.34027163134E+00 -0.69439638174E+00  0.13903289334E+02  0.14208867847E+02  0.28271010000E+01 0.  1.
<mgrwt>
<rscale>  0 0.59432856E+01</rscale>
<asrwt>0</asrwt>
<pdfrwt beam="2">  1        1 0.76857694E+00 0.59432856E+01</pdfrwt>
<pdfrwt beam="1">  1       -1 0.20256772E+00 0.59432856E+01</pdfrwt>
<totfact> 0.10918549E-02</totfact>
</mgrwt>
</event>
<event>
 4    1  0.4231559E-004  0.6914177E+01  0.7818608E-02  0.2309734E+00
         -1   -1    0    0    0  501 -0.00000000000E+00  0.00000000000E+00  0.34878373466E+02  0.34878373830E+02  0.50400000000E-02 0.  1.
          1   -1    0    0  501    0  0.00000000000E+00 -0.00000000000E+00 -0.34264221554E+00  0.34267928077E+00  0.50400000000E-02 0. -1.
         31    1    1    2    0    0 -0.12446820668E+01 -0.12450456480E+01  0.21990752346E+02  0.22241516606E+02  0.28271010000E+01 0.  1.
        -31    1    1    2    0    0  0.12446820668E+01  0.12450456480E+01  0.12544978904E+02  0.12979536505E+02  0.28271010000E+01 0. -1.
<mgrwt>
<rscale>  0 0.69141774E+01</rscale>
<asrwt>0</asrwt>
<pdfrwt beam="2">  1        1 0.72351221E+00 0.69141774E+01</pdfrwt>
<pdfrwt beam="1">  1       -1 0.29123231E+00 0.69141774E+01</pdfrwt>
<totfact> 0.61962443E-03</totfact>
</mgrwt>
</event>
<event>
 4    1  0.4231559E-004  0.6668568E+01  0.7818608E-02  0.2335763E+00
         -1   -1    0    0    0  501 -0.00000000000E+00  0.00000000000E+00  0.46396930356E+02  0.46396930630E+02  0.50400000000E-02 0. -1.
          1   -1    0    0  501    0  0.00000000000E+00 -0.00000000000E+00 -0.23958929360E+00  0.23964229845E+00  0.50400000000E-02 0.  1.
         31    1    1    2    0    0  0.14624549782E+01  0.59613945539E+00  0.17524265329E+02  0.17820957668E+02  0.28271010000E+01 0. -1.
        -31    1    1    2    0    0 -0.14624549782E+01 -0.59613945539E+00  0.28633075733E+02  0.28815615260E+02  0.28271010000E+01 0.  1.
<mgrwt>
<rscale>  0 0.66685681E+01</rscale>
<asrwt>0</asrwt>
<pdfrwt beam="2">  1        1 0.50828316E+00 0.66685681E+01</pdfrwt>
<pdfrwt beam="1">  1       -1 0.38562381E+00 0.66685681E+01</pdfrwt>
<totfact> 0.21087713E-02</totfact>
</mgrwt>
</event>
<event>
 4    1  0.4231559E-004  0.6055954E+01  0.7818608E-02  0.2408198E+00
         -1   -1    0    0    0  501 -0.00000000000E+00  0.00000000000E+00  0.50390163622E+02  0.50390163875E+02  0.50400000000E-02 0.  1.
          1   -1    0    0  501    0  0.00000000000E+00 -0.00000000000E+00 -0.18191789041E+00  0.18198769313E+00  0.50400000000E-02 0. -1.
         31    1    1    2    0    0 -0.91125750485E-01  0.84681644344E+00  0.30710634364E+02  0.30852244085E+02  0.28271010000E+01 0.  1.
        -31    1    1    2    0    0  0.91125750485E-01 -0.84681644344E+00  0.19497611368E+02  0.19719907483E+02  0.28271010000E+01 0.  1.
<mgrwt>
<rscale>  0 0.60559537E+01</rscale>
<asrwt>0</asrwt>
<pdfrwt beam="2">  1        1 0.38656348E+00 0.60559537E+01</pdfrwt>
<pdfrwt beam="1">  1       -1 0.41816593E+00 0.60559537E+01</pdfrwt>
<totfact> 0.41888757E-02</totfact>
</mgrwt>
</event>
<event>
 4    1  0.4231559E-004  0.5833886E+01  0.7818608E-02  0.2437558E+00
         -1   -1    0    0    0  501 -0.00000000000E+00  0.00000000000E+00  0.69287768070E+02  0.69287768253E+02  0.50400000000E-02 0.  1.
          1   -1    0    0  501    0  0.00000000000E+00 -0.00000000000E+00 -0.12274838919E+00  0.12285181582E+00  0.50400000000E-02 0. -1.
         31    1    1    2    0    0 -0.82540713560E-04 -0.33251402995E+00  0.42158844374E+02  0.42254836700E+02  0.28271010000E+01 0.  1.
        -31    1    1    2    0    0  0.82540713560E-04  0.33251402995E+00  0.27006175307E+02  0.27155783369E+02  0.28271010000E+01 0. -1.
<mgrwt>
<rscale>  0 0.58338864E+01</rscale>
<asrwt>0</asrwt>
<pdfrwt beam="2">  1        1 0.26137087E+00 0.58338864E+01</pdfrwt>
<pdfrwt beam="1">  1       -1 0.57393557E+00 0.58338864E+01</pdfrwt>
<totfact> 0.11912421E-02</totfact>
</mgrwt>
</event>
<event>
 4    1  0.4231559E-004  0.6860888E+01  0.7818608E-02  0.2315251E+00
          1   -1    0    0  501    0  0.00000000000E+00  0.00000000000E+00  0.57280330684E+02  0.57280330906E+02  0.50400000000E-02 0.  1.
         -1   -1    0    0    0  501 -0.00000000000E+00 -0.00000000000E+00 -0.20541364409E+00  0.20547546515E+00  0.50400000000E-02 0. -1.
         31    1    1    2    0    0  0.18997870886E+01 -0.25874207811E-01  0.31946951546E+02  0.32128026295E+02  0.28271010000E+01 0.  1.
        -31    1    1    2    0    0 -0.18997870886E+01  0.25874207811E-01  0.25127965494E+02  0.25357780076E+02  0.28271010000E+01 0. -1.
<mgrwt>
<rscale>  0 0.68608876E+01</rscale>
<asrwt>0</asrwt>
<pdfrwt beam="1">  1        1 0.47533287E+00 0.68608876E+01</pdfrwt>
<pdfrwt beam="2">  1       -1 0.43648282E+00 0.68608876E+01</pdfrwt>
<totfact> 0.13819872E-02</totfact>
</mgrwt>
</event>
<event>
 4    1  0.4231559E-004  0.6571919E+01  0.7818608E-02  0.2346444E+00
          1   -1    0    0  501    0  0.00000000000E+00  0.00000000000E+00  0.41650992677E+02  0.41650992982E+02  0.50400000000E-02 0. -1.
         -1   -1    0    0    0  501 -0.00000000000E+00 -0.00000000000E+00 -0.25921346160E+00  0.25926245442E+00  0.50400000000E-02 0.  1.
         31    1    1    2    0    0  0.40189007216E+00  0.81571169323E+00  0.11726653198E+02  0.12096850685E+02  0.28271010000E+01 0.  1.
        -31    1    1    2    0    0 -0.40189007216E+00 -0.81571169323E+00  0.29665126017E+02  0.29813404751E+02  0.28271010000E+01 0.  1.
<mgrwt>
<rscale>  0 0.65719194E+01</rscale>
<asrwt>0</asrwt>
<pdfrwt beam="1">  1        1 0.34654332E+00 0.65719194E+01</pdfrwt>
<pdfrwt beam="2">  1       -1 0.54932746E+00 0.65719194E+01</pdfrwt>
<totfact> 0.79064432E-03</totfact>
</mgrwt>
</event>
<event>
 4    1  0.4231559E-004  0.7088217E+01  0.7818608E-02  0.2292191E+00
          1   -1    0    0  501    0  0.00000000000E+00  0.00000000000E+00  0.76802836275E+02  0.76802836441E+02  0.50400000000E-02 0.  1.
         -1   -1    0    0    0  501 -0.00000000000E+00 -0.00000000000E+00 -0.16350579491E+00  0.16358345445E+00  0.50400000000E-02 0. -1.
         31    1    1    2    0    0 -0.92211568364E+00 -0.59930274828E-01  0.59246505199E+02  0.59321115696E+02  0.28271010000E+01 0.  1.
        -31    1    1    2    0    0  0.92211568364E+00  0.59930274828E-01  0.17392825281E+02  0.17645304200E+02  0.28271010000E+01 0. -1.
<mgrwt>
<rscale>  0 0.70882166E+01</rscale>
<asrwt>0</asrwt>
<pdfrwt beam="1">  1        1 0.63641221E+00 0.70882166E+01</pdfrwt>
<pdfrwt beam="2">  1       -1 0.34796843E+00 0.70882166E+01</pdfrwt>
<totfact> 0.88725637E-03</totfact>
</mgrwt>
</event>
<event>
 4    1  0.4231559E-004  0.6406336E+01  0.7818608E-02  0.2365359E+00
         -1   -1    0    0    0  501 -0.00000000000E+00  0.00000000000E+00  0.77616169044E+02  0.77616169207E+02  0.50400000000E-02 0.  1.
          1   -1    0    0  501    0  0.00000000000E+00 -0.00000000000E+00 -0.13214443447E+00  0.13224051255E+00  0.50400000000E-02 0. -1.
         31    1    1    2    0    0 -0.93908546713E+00 -0.27714572524E+00  0.52627697802E+02  0.52712671790E+02  0.28271010000E+01 0.  1.
        -31    1    1    2    0    0  0.93908546713E+00  0.27714572524E+00  0.24856326807E+02  0.25035737929E+02  0.28271010000E+01 0. -1.
<mgrwt>
<rscale>  0 0.64063363E+01</rscale>
<asrwt>0</asrwt>
<pdfrwt beam="2">  1        1 0.28138122E+00 0.64063363E+01</pdfrwt>
<pdfrwt beam="1">  1       -1 0.64287825E+00 0.64063363E+01</pdfrwt>
<totfact> 0.50949937E-03</totfact>
</mgrwt>
</event>
<event>
 4    1  0.4231559E-004  0.6058081E+01  0.7818608E-02  0.2407925E+00
          1   -1    0    0  501    0  0.00000000000E+00  0.00000000000E+00  0.62464955123E+02  0.62464955326E+02  0.50400000000E-02 0. -1.
         -1   -1    0    0    0  501 -0.00000000000E+00 -0.00000000000E+00 -0.14684029582E+00  0.14692676433E+00  0.50400000000E-02 0.  1.
         31    1    1    2    0    0 -0.21038912318E+00  0.56108185518E+00  0.40538044942E+02  0.40640923516E+02  0.28271010000E+01 0.  1.
        -31    1    1    2    0    0  0.21038912318E+00 -0.56108185518E+00  0.21780069885E+02  0.21970958575E+02  0.28271010000E+01 0.  1.
<mgrwt>
<rscale>  0 0.60580808E+01</rscale>
<asrwt>0</asrwt>
<pdfrwt beam="1">  1        1 0.51771885E+00 0.60580808E+01</pdfrwt>
<pdfrwt beam="2">  1       -1 0.31245000E+00 0.60580808E+01</pdfrwt>
<totfact> 0.52570833E-02</totfact>
</mgrwt>
</event>
<event>
 4    1  0.4231559E-004  0.6387012E+01  0.7818608E-02  0.2367620E+00
         -1   -1    0    0    0  501 -0.00000000000E+00  0.00000000000E+00  0.52305309841E+02  0.52305310083E+02  0.50400000000E-02 0.  1.
          1   -1    0    0  501    0  0.00000000000E+00 -0.00000000000E+00 -0.19494703995E+00  0.19501217907E+00  0.50400000000E-02 0. -1.
         31    1    1    2    0    0  0.10032269031E+01 -0.10914637027E+01  0.26800623790E+02  0.26990066558E+02  0.28271010000E+01 0.  1.
        -31    1    1    2    0    0 -0.10032269031E+01  0.10914637027E+01  0.25309739011E+02  0.25510255704E+02  0.28271010000E+01 0.  1.
<mgrwt>
<rscale>  0 0.63870123E+01</rscale>
<asrwt>0</asrwt>
<pdfrwt beam="2">  1        1 0.41419105E+00 0.63870123E+01</pdfrwt>
<pdfrwt beam="1">  1       -1 0.43410940E+00 0.63870123E+01</pdfrwt>
<totfact> 0.25621989E-02</totfact>
</mgrwt>
</event>
<event>
 4    1  0.4231559E-004  0.7739639E+01  0.7818608E-02  0.2232313E+00
         -1   -1    0    0    0  501 -0.00000000000E+00  0.00000000000E+00  0.50462143817E+02  0.50462144069E+02  0.50400000000E-02 0. -1.
          1   -1    0    0  501    0  0.00000000000E+00 -0.00000000000E+00 -0.29674541363E+00  0.29678821087E+00  0.50400000000E-02 0.  1.
         31    1    1    2    0    0 -0.83382563623E+00  0.24637299426E+01  0.28143200837E+02  0.28404180746E+02  0.28271010000E+01 0.  1.
        -31    1    1    2    0    0  0.83382563623E+00 -0.24637299426E+01  0.22022197567E+02  0.22354751534E+02  0.28271010000E+01 0.  1.
<mgrwt>
<rscale>  0 0.77396388E+01</rscale>
<asrwt>0</asrwt>
<pdfrwt beam="2">  1        1 0.62906580E+00 0.77396388E+01</pdfrwt>
<pdfrwt beam="1">  1       -1 0.41971037E+00 0.77396388E+01</pdfrwt>
<totfact> 0.34408412E-03</totfact>
</mgrwt>
</event>
<event>
 4    1  0.4231559E-004  0.6350096E+01  0.7818608E-02  0.2371970E+00
          1   -1    0    0  501    0  0.00000000000E+00  0.00000000000E+00  0.42710175528E+02  0.42710175826E+02  0.50400000000E-02 0.  1.
         -1   -1    0    0    0  501 -0.00000000000E+00 -0.00000000000E+00 -0.23600387704E+00  0.23605768697E+00  0.50400000000E-02 0. -1.
         31    1    1    2    0    0  0.37392185096E+00  0.13841681979E+01  0.22459870394E+02  0.22682460566E+02  0.28271010000E+01 0.  1.
        -31    1    1    2    0    0 -0.37392185096E+00 -0.13841681979E+01  0.20014301257E+02  0.20263772946E+02  0.28271010000E+01 0. -1.
<mgrwt>
<rscale>  0 0.63500957E+01</rscale>
<asrwt>0</asrwt>
<pdfrwt beam="1">  1        1 0.35510951E+00 0.63500957E+01</pdfrwt>
<pdfrwt beam="2">  1       -1 0.50049832E+00 0.63500957E+01</pdfrwt>
<totfact> 0.15616730E-02</totfact>
</mgrwt>
</event>
<event>
 4    1  0.4231559E-004  0.6308437E+01  0.7818608E-02  0.2376929E+00
          1   -1    0    0  501    0  0.00000000000E+00  0.00000000000E+00  0.36528528353E+02  0.36528528701E+02  0.50400000000E-02 0.  1.
         -1   -1    0    0    0  501 -0.00000000000E+00 -0.00000000000E+00 -0.27234134055E+00  0.27238797215E+00  0.50400000000E-02 0. -1.
         31    1    1    2    0    0  0.58785926108E-02 -0.13352221819E+01  0.20559663147E+02  0.20796035718E+02  0.28271010000E+01 0.  1.
        -31    1    1    2    0    0 -0.58785926108E-02  0.13352221819E+01  0.15696523866E+02  0.16004880955E+02  0.28271010000E+01 0. -1.
<mgrwt>
<rscale>  0 0.63084365E+01</rscale>
<asrwt>0</asrwt>
<pdfrwt beam="1">  1        1 0.30429573E+00 0.63084365E+01</pdfrwt>
<pdfrwt beam="2">  1       -1 0.57643720E+00 0.63084365E+01</pdfrwt>
<totfact> 0.78991213E-03</totfact>
</mgrwt>
</event>
<event>
 4    1  0.4231559E-004  0.5898568E+01  0.7818608E-02  0.2428815E+00
         -1   -1    0    0    0  501 -0.00000000000E+00  0.00000000000E+00  0.32287248077E+02  0.32287248471E+02  0.50400000000E-02 0.  1.
          1   -1    0    0  501    0  0.00000000000E+00 -0.00000000000E+00 -0.26937885554E+00  0.26942599988E+00  0.50400000000E-02 0. -1.
         31    1    1    2    0    0  0.31354985001E+00  0.46666196546E+00  0.12563433286E+02  0.12889858141E+02  0.28271010000E+01 0. -1.
        -31    1    1    2    0    0 -0.31354985001E+00 -0.46666196546E+00  0.19454435936E+02  0.19666816330E+02  0.28271010000E+01 0.  1.
<mgrwt>
<rscale>  0 0.58985679E+01</rscale>
<asrwt>0</asrwt>
<pdfrwt beam="2">  1        1 0.56966599E+00 0.58985679E+01</pdfrwt>
<pdfrwt beam="1">  1       -1 0.26920136E+00 0.58985679E+01</pdfrwt>
<totfact> 0.54934769E-02</totfact>
</mgrwt>
</event>
<event>
 4    1  0.4231559E-004  0.6299357E+01  0.7818608E-02  0.2378017E+00
          1   -1    0    0  501    0  0.00000000000E+00  0.00000000000E+00  0.58114514805E+02  0.58114515023E+02  0.50400000000E-02 0. -1.
         -1   -1    0    0    0  501 -0.00000000000E+00 -0.00000000000E+00 -0.17066819206E+00  0.17074259392E+00  0.50400000000E-02 0.  1.
         31    1    1    2    0    0  0.82912053552E+00  0.86377416133E+00  0.22465929559E+02  0.22674744490E+02  0.28271010000E+01 0.  1.
        -31    1    1    2    0    0 -0.82912053552E+00 -0.86377416133E+00  0.35477917054E+02  0.35610513128E+02  0.28271010000E+01 0. -1.
<mgrwt>
<rscale>  0 0.62993567E+01</rscale>
<asrwt>0</asrwt>
<pdfrwt beam="1">  1        1 0.48194329E+00 0.62993567E+01</pdfrwt>
<pdfrwt beam="2">  1       -1 0.36291160E+00 0.62993567E+01</pdfrwt>
<totfact> 0.37680651E-02</totfact>
</mgrwt>
</event>
<event>
 4    1  0.4231559E-004  0.6629346E+01  0.7818608E-02  0.2340066E+00
          1   -1    0    0  501    0  0.00000000000E+00  0.00000000000E+00  0.55640414051E+02  0.55640414279E+02  0.50400000000E-02 0.  1.
         -1   -1    0    0    0  501 -0.00000000000E+00 -0.00000000000E+00 -0.19743304888E+00  0.19749736806E+00  0.50400000000E-02 0. -1.
         31    1    1    2    0    0 -0.86667449654E+00  0.11376101451E+01  0.19515047637E+02  0.19770555528E+02  0.28271010000E+01 0. -1.
        -31    1    1    2    0    0  0.86667449654E+00 -0.11376101451E+01  0.35927933365E+02  0.36067356120E+02  0.28271010000E+01 0.  1.
<mgrwt>
<rscale>  0 0.66293465E+01</rscale>
<asrwt>0</asrwt>
<pdfrwt beam="1">  1        1 0.46170692E+00 0.66293465E+01</pdfrwt>
<pdfrwt beam="2">  1       -1 0.41954585E+00 0.66293465E+01</pdfrwt>
<totfact> 0.20337234E-02</totfact>
</mgrwt>
</event>
<event>
 4    1  0.4231559E-004  0.6088169E+01  0.7818608E-02  0.2404088E+00
         -1   -1    0    0    0  501 -0.00000000000E+00  0.00000000000E+00  0.87183302956E+02  0.87183303102E+02  0.50400000000E-02 0.  1.
          1   -1    0    0  501    0  0.00000000000E+00 -0.00000000000E+00 -0.10622710624E+00  0.10634660173E+00  0.50400000000E-02 0. -1.
         31    1    1    2    0    0  0.30575485027E+00 -0.10828010047E+01  0.42255536997E+02  0.42364948377E+02  0.28271010000E+01 0. -1.
        -31    1    1    2    0    0 -0.30575485027E+00  0.10828010047E+01  0.44821538853E+02  0.44924701326E+02  0.28271010000E+01 0.  1.
<mgrwt>
<rscale>  0 0.60881694E+01</rscale>
<asrwt>0</asrwt>
<pdfrwt beam="2">  1        1 0.22634863E+00 0.60881694E+01</pdfrwt>
<pdfrwt beam="1">  1       -1 0.72177190E+00 0.60881694E+01</pdfrwt>
<totfact> 0.57612848E-03</totfact>
</mgrwt>
</event>
<event>
 4    1  0.4231559E-004  0.6490346E+01  0.7818608E-02  0.2355662E+00
         -1   -1    0    0    0  501 -0.00000000000E+00  0.00000000000E+00  0.45635634411E+02  0.45635634689E+02  0.50400000000E-02 0.  1.
          1   -1    0    0  501    0  0.00000000000E+00 -0.00000000000E+00 -0.23073810167E+00  0.23079313933E+00  0.50400000000E-02 0. -1.
         31    1    1    2    0    0 -0.23841577499E+00  0.12276938559E+01  0.15725998862E+02  0.16026965232E+02  0.28271010000E+01 0. -1.
        -31    1    1    2    0    0  0.23841577499E+00 -0.12276938559E+01  0.29678897447E+02  0.29839462596E+02  0.28271010000E+01 0.  1.
<mgrwt>
<rscale>  0 0.64903461E+01</rscale>
<asrwt>0</asrwt>
<pdfrwt beam="2">  1        1 0.48956230E+00 0.64903461E+01</pdfrwt>
<pdfrwt beam="1">  1       -1 0.37925572E+00 0.64903461E+01</pdfrwt>
<totfact> 0.27804285E-02</totfact>
</mgrwt>
</event>
<event>
 4    1  0.4231559E-004  0.9437819E+01  0.7818608E-02  0.2108469E+00
          1   -1    0    0  501    0  0.00000000000E+00  0.00000000000E+00  0.59146434463E+02  0.59146434678E+02  0.50400000000E-02 0.  1.
         -1   -1    0    0    0  501 -0.00000000000E+00 -0.00000000000E+00 -0.37647403947E+00  0.37650777415E+00  0.50400000000E-02 0. -1.
         31    1    1    2    0    0  0.92986603774E+00  0.35589925234E+01  0.23943043452E+02  0.24388376503E+02  0.28271010000E+01 0. -1.
        -31    1    1    2    0    0 -0.92986603774E+00 -0.35589925234E+01  0.34826916971E+02  0.35134565949E+02  0.28271010000E+01 0. -1.
<mgrwt>
<rscale>  0 0.94378191E+01</rscale>
<asrwt>0</asrwt>
<pdfrwt beam="1">  1        1 0.49217733E+00 0.94378191E+01</pdfrwt>
<pdfrwt beam="2">  1       -1 0.79767517E+00 0.94378191E+01</pdfrwt>
<totfact> 0.28786217E-04</totfact>
</mgrwt>
</event>
<event>
 4    1  0.4231559E-004  0.6970044E+01  0.7818608E-02  0.2304024E+00
         -1   -1    0    0    0  501 -0.00000000000E+00  0.00000000000E+00  0.62544329795E+02  0.62544329999E+02  0.50400000000E-02 0. -1.
          1   -1    0    0  501    0  0.00000000000E+00 -0.00000000000E+00 -0.19415540323E+00  0.19422080786E+00  0.50400000000E-02 0.  1.
         31    1    1    2    0    0 -0.54168008073E+00 -0.17774453096E+01  0.23643369449E+02  0.23884181965E+02  0.28271010000E+01 0. -1.
        -31    1    1    2    0    0  0.54168008073E+00  0.17774453096E+01  0.38706804943E+02  0.38854368842E+02  0.28271010000E+01 0.  1.
<mgrwt>
<rscale>  0 0.69700438E+01</rscale>
<asrwt>0</asrwt>
<pdfrwt beam="2">  1        1 0.41276579E+00 0.69700438E+01</pdfrwt>
<pdfrwt beam="1">  1       -1 0.51876623E+00 0.69700438E+01</pdfrwt>
<totfact> 0.68989543E-03</totfact>
</mgrwt>
</event>
<event>
 4    1  0.4231559E-004  0.6140811E+01  0.7818608E-02  0.2397449E+00
          1   -1    0    0  501    0  0.00000000000E+00  0.00000000000E+00  0.51704149084E+02  0.51704149329E+02  0.50400000000E-02 0.  1.
         -1   -1    0    0    0  501 -0.00000000000E+00 -0.00000000000E+00 -0.18229826191E+00  0.18236791904E+00  0.50400000000E-02 0. -1.
         31    1    1    2    0    0  0.11713357160E+01  0.25062088585E+00  0.25821716629E+02  0.26003622593E+02  0.28271010000E+01 0. -1.
        -31    1    1    2    0    0 -0.11713357160E+01 -0.25062088585E+00  0.25700134192E+02  0.25882894656E+02  0.28271010000E+01 0.  1.
<mgrwt>
<rscale>  0 0.61408110E+01</rscale>
<asrwt>0</asrwt>
<pdfrwt beam="1">  1        1 0.42903403E+00 0.61408110E+01</pdfrwt>
<pdfrwt beam="2">  1       -1 0.38740401E+00 0.61408110E+01</pdfrwt>
<totfact> 0.44233621E-02</totfact>
</mgrwt>
</event>
<event>
 4    1  0.4231559E-004  0.6112892E+01  0.7818608E-02  0.2400958E+00
          1   -1    0    0  501    0  0.00000000000E+00  0.00000000000E+00  0.57987135031E+02  0.57987135250E+02  0.50400000000E-02 0.  1.
         -1   -1    0    0    0  501 -0.00000000000E+00 -0.00000000000E+00 -0.16106266738E+00  0.16114150435E+00  0.50400000000E-02 0. -1.
         31    1    1    2    0    0  0.65082664747E+00  0.36696307245E+00  0.20452217551E+02  0.20660201839E+02  0.28271010000E+01 0.  1.
        -31    1    1    2    0    0 -0.65082664747E+00 -0.36696307245E+00  0.37373854813E+02  0.37488074915E+02  0.28271010000E+01 0.  1.
<mgrwt>
<rscale>  0 0.61128917E+01</rscale>
<asrwt>0</asrwt>
<pdfrwt beam="1">  1        1 0.48081064E+00 0.61128917E+01</pdfrwt>
<pdfrwt beam="2">  1       -1 0.34254980E+00 0.61128917E+01</pdfrwt>
<totfact> 0.50405514E-02</totfact>
</mgrwt>
</event>
<event>
 4    1  0.4231559E-004  0.7391415E+01  0.7818608E-02  0.2263253E+00
          1   -1    0    0  501    0  0.00000000000E+00  0.00000000000E+00  0.50049484188E+02  0.50049484442E+02  0.50400000000E-02 0. -1.
         -1   -1    0    0    0  501 -0.00000000000E+00 -0.00000000000E+00 -0.27287150160E+00  0.27291804262E+00  0.50400000000E-02 0.  1.
         31    1    1    2    0    0  0.10044927903E+01  0.48945373601E+00  0.10579397103E+02  0.11007484447E+02  0.28271010000E+01 0.  1.
        -31    1    1    2    0    0 -0.10044927903E+01 -0.48945373601E+00  0.39197215583E+02  0.39314918037E+02  0.28271010000E+01 0. -1.
<mgrwt>
<rscale>  0 0.73914154E+01</rscale>
<asrwt>0</asrwt>
<pdfrwt beam="1">  1        1 0.41610083E+00 0.73914154E+01</pdfrwt>
<pdfrwt beam="2">  1       -1 0.57871004E+00 0.73914154E+01</pdfrwt>
<totfact> 0.27906721E-03</totfact>
</mgrwt>
</event>
<event>
 4    1  0.4231559E-004  0.6204116E+01  0.7818608E-02  0.2389591E+00
          1   -1    0    0  501    0  0.00000000000E+00  0.00000000000E+00  0.62712333284E+02  0.62712333487E+02  0.50400000000E-02 0. -1.
         -1   -1    0    0    0  501 -0.00000000000E+00 -0.00000000000E+00 -0.15340132296E+00  0.15348409522E+00  0.50400000000E-02 0.  1.
         31    1    1    2    0    0  0.70255434341E+00  0.99972978270E+00  0.35033036024E+02  0.35168155417E+02  0.28271010000E+01 0.  1.
        -31    1    1    2    0    0 -0.70255434341E+00 -0.99972978270E+00  0.27525895937E+02  0.27697662165E+02  0.28271010000E+01 0.  1.
<mgrwt>
<rscale>  0 0.62041157E+01</rscale>
<asrwt>0</asrwt>
<pdfrwt beam="1">  1        1 0.51981856E+00 0.62041157E+01</pdfrwt>
<pdfrwt beam="2">  1       -1 0.32637161E+00 0.62041157E+01</pdfrwt>
<totfact> 0.42665487E-02</totfact>
</mgrwt>
</event>
<event>
 4    1  0.4231559E-004  0.6655810E+01  0.7818608E-02  0.2337158E+00
         -1   -1    0    0    0  501 -0.00000000000E+00  0.00000000000E+00  0.43716858440E+02  0.43716858730E+02  0.50400000000E-02 0.  1.
          1   -1    0    0  501    0  0.00000000000E+00 -0.00000000000E+00 -0.25330829642E+00  0.25335843115E+00  0.50400000000E-02 0. -1.
         31    1    1    2    0    0  0.10258421457E+01  0.30821387353E+00  0.30921654329E+02  0.31069093234E+02  0.28271010000E+01 0.  1.
        -31    1    1    2    0    0 -0.10258421457E+01 -0.30821387353E+00  0.12541895815E+02  0.12901123927E+02  0.28271010000E+01 0. -1.
<mgrwt>
<rscale>  0 0.66558100E+01</rscale>
<asrwt>0</asrwt>
<pdfrwt beam="2">  1        1 0.53704463E+00 0.66558100E+01</pdfrwt>
<pdfrwt beam="1">  1       -1 0.36357652E+00 0.66558100E+01</pdfrwt>
<totfact> 0.21468752E-02</totfact>
</mgrwt>
</event>
<event>
 4    1  0.4231559E-004  0.6061654E+01  0.7818608E-02  0.2407468E+00
         -1   -1    0    0    0  501 -0.00000000000E+00  0.00000000000E+00  0.27090334851E+02  0.27090335320E+02  0.50400000000E-02 0.  1.
          1   -1    0    0  501    0  0.00000000000E+00 -0.00000000000E+00 -0.33906526817E+00  0.33910272438E+00  0.50400000000E-02 0. -1.
         31    1    1    2    0    0 -0.20192028752E+00 -0.75164813710E+00  0.16844526080E+02  0.17097845059E+02  0.28271010000E+01 0.  1.
        -31    1    1    2    0    0  0.20192028752E+00  0.75164813710E+00  0.99067435023E+01  0.10331592985E+02  0.28271010000E+01 0. -1.
<mgrwt>
<rscale>  0 0.60616538E+01</rscale>
<asrwt>0</asrwt>
<pdfrwt beam="2">  1        1 0.71405640E+00 0.60616538E+01</pdfrwt>
<pdfrwt beam="1">  1       -1 0.22680579E+00 0.60616538E+01</pdfrwt>
<totfact> 0.17348743E-02</totfact>
</mgrwt>
</event>
<event>
 4    1  0.4231559E-004  0.5993856E+01  0.7818608E-02  0.2416224E+00
         -1   -1    0    0    0  501 -0.00000000000E+00  0.00000000000E+00  0.45214018729E+02  0.45214019010E+02  0.50400000000E-02 0.  1.
          1   -1    0    0  501    0  0.00000000000E+00 -0.00000000000E+00 -0.19861361695E+00  0.19867755394E+00  0.50400000000E-02 0. -1.
         31    1    1    2    0    0  0.76529001984E+00 -0.56761099217E+00  0.20348364037E+02  0.20565900664E+02  0.28271010000E+01 0.  1.
        -31    1    1    2    0    0 -0.76529001984E+00  0.56761099217E+00  0.24667041075E+02  0.24846795901E+02  0.28271010000E+01 0. -1.
<mgrwt>
<rscale>  0 0.59938562E+01</rscale>
<asrwt>0</asrwt>
<pdfrwt beam="2">  1        1 0.42169894E+00 0.59938562E+01</pdfrwt>
<pdfrwt beam="1">  1       -1 0.37550395E+00 0.59938562E+01</pdfrwt>
<totfact> 0.56004178E-02</totfact>
</mgrwt>
</event>
<event>
 4    1  0.4231559E-004  0.6498054E+01  0.7818608E-02  0.2354783E+00
         -1   -1    0    0    0  501 -0.00000000000E+00  0.00000000000E+00  0.36469999260E+02  0.36469999608E+02  0.50400000000E-02 0. -1.
          1   -1    0    0  501    0  0.00000000000E+00 -0.00000000000E+00 -0.28942596108E+00  0.28946984048E+00  0.50400000000E-02 0.  1.
         31    1    1    2    0    0 -0.13648574347E+01  0.41227531214E+00  0.22212023497E+02  0.22436561560E+02  0.28271010000E+01 0. -1.
        -31    1    1    2    0    0  0.13648574347E+01 -0.41227531214E+00  0.13968549802E+02  0.14322907889E+02  0.28271010000E+01 0.  1.
<mgrwt>
<rscale>  0 0.64980543E+01</rscale>
<asrwt>0</asrwt>
<pdfrwt beam="2">  1        1 0.61230049E+00 0.64980543E+01</pdfrwt>
<pdfrwt beam="1">  1       -1 0.30395301E+00 0.64980543E+01</pdfrwt>
<totfact> 0.21444475E-02</totfact>
</mgrwt>
</event>
<event>
 4    1  0.4231559E-004  0.5941215E+01  0.7818608E-02  0.2423138E+00
         -1   -1    0    0    0  501 -0.00000000000E+00  0.00000000000E+00  0.32431616953E+02  0.32431617345E+02  0.50400000000E-02 0. -1.
          1   -1    0    0  501    0  0.00000000000E+00 -0.00000000000E+00 -0.27207211667E+00  0.27211879440E+00  0.50400000000E-02 0.  1.
         31    1    1    2    0    0  0.66446520491E+00 -0.45580582697E+00  0.18432834374E+02  0.18665774993E+02  0.28271010000E+01 0. -1.
        -31    1    1    2    0    0 -0.66446520491E+00  0.45580582697E+00  0.13726710463E+02  0.14037961146E+02  0.28271010000E+01 0.  1.
<mgrwt>
<rscale>  0 0.59412148E+01</rscale>
<asrwt>0</asrwt>
<pdfrwt beam="2">  1        1 0.57533435E+00 0.59412148E+01</pdfrwt>
<pdfrwt beam="1">  1       -1 0.27041737E+00 0.59412148E+01</pdfrwt>
<totfact> 0.50854885E-02</totfact>
</mgrwt>
</event>
<event>
 4    1  0.4231559E-004  0.6082028E+01  0.7818608E-02  0.2404868E+00
          1   -1    0    0  501    0  0.00000000000E+00  0.00000000000E+00  0.59922764266E+02  0.59922764478E+02  0.50400000000E-02 0.  1.
         -1   -1    0    0    0  501 -0.00000000000E+00 -0.00000000000E+00 -0.15428674761E+00  0.15436904511E+00  0.50400000000E-02 0. -1.
         31    1    1    2    0    0  0.32851497976E+00  0.76639302928E+00  0.22492450366E+02  0.22684754879E+02  0.28271010000E+01 0. -1.
        -31    1    1    2    0    0 -0.32851497976E+00 -0.76639302928E+00  0.37276027152E+02  0.37392378644E+02  0.28271010000E+01 0. -1.
<mgrwt>
<rscale>  0 0.60820282E+01</rscale>
<asrwt>0</asrwt>
<pdfrwt beam="1">  1        1 0.49675977E+00 0.60820282E+01</pdfrwt>
<pdfrwt beam="2">  1       -1 0.32821228E+00 0.60820282E+01</pdfrwt>
<totfact> 0.52378457E-02</totfact>
</mgrwt>
</event>
<event>
 4    1  0.4231559E-004  0.7862294E+01  0.7818608E-02  0.2221947E+00
         -1   -1    0    0    0  501 -0.00000000000E+00  0.00000000000E+00  0.48557476315E+02  0.48557476576E+02  0.50400000000E-02 0. -1.
          1   -1    0    0  501    0  0.00000000000E+00 -0.00000000000E+00 -0.31824004045E+00  0.31827994745E+00  0.50400000000E-02 0.  1.
         31    1    1    2    0    0  0.23797346491E+00 -0.10559711284E+01  0.85291378249E+01  0.90504363703E+01  0.28271010000E+01 0.  1.
        -31    1    1    2    0    0 -0.23797346491E+00  0.10559711284E+01  0.39710098450E+02  0.39825320154E+02  0.28271010000E+01 0. -1.
<mgrwt>
<rscale>  0 0.78622935E+01</rscale>
<asrwt>0</asrwt>
<pdfrwt beam="2">  1        1 0.67417428E+00 0.78622935E+01</pdfrwt>
<pdfrwt beam="1">  1       -1 0.40413895E+00 0.78622935E+01</pdfrwt>
<totfact> 0.24809989E-03</totfact>
</mgrwt>
</event>
<event>
 4    1  0.4231559E-004  0.6231158E+01  0.7818608E-02  0.2386275E+00
          1   -1    0    0  501    0  0.00000000000E+00  0.00000000000E+00  0.81508683120E+02  0.81508683276E+02  0.50400000000E-02 0.  1.
         -1   -1    0    0    0  501 -0.00000000000E+00 -0.00000000000E+00 -0.11903607601E+00  0.11914272530E+00  0.50400000000E-02 0. -1.
         31    1    1    2    0    0 -0.11655039160E+01 -0.24919098641E+00  0.33593767325E+02  0.33733576725E+02  0.28271010000E+01 0. -1.
        -31    1    1    2    0    0  0.11655039160E+01  0.24919098641E+00  0.47795879719E+02  0.47894249276E+02  0.28271010000E+01 0.  1.
<mgrwt>
<rscale>  0 0.62311581E+01</rscale>
<asrwt>0</asrwt>
<pdfrwt beam="1">  1        1 0.67495598E+00 0.62311581E+01</pdfrwt>
<pdfrwt beam="2">  1       -1 0.25355167E+00 0.62311581E+01</pdfrwt>
<totfact> 0.20042056E-02</totfact>
</mgrwt>
</event>
<event>
 4    1  0.4231559E-004  0.6391962E+01  0.7818608E-02  0.2367040E+00
         -1   -1    0    0    0  501 -0.00000000000E+00  0.00000000000E+00  0.45528117219E+02  0.45528117498E+02  0.50400000000E-02 0. -1.
          1   -1    0    0  501    0  0.00000000000E+00 -0.00000000000E+00 -0.22432279315E+00  0.22437940441E+00  0.50400000000E-02 0.  1.
         31    1    1    2    0    0  0.24940549627E+00 -0.14588492151E+01  0.23919288865E+02  0.24131210579E+02  0.28271010000E+01 0.  1.
        -31    1    1    2    0    0 -0.24940549627E+00  0.14588492151E+01  0.21384505561E+02  0.21621286324E+02  0.28271010000E+01 0. -1.
<mgrwt>
<rscale>  0 0.63919624E+01</rscale>
<asrwt>0</asrwt>
<pdfrwt beam="2">  1        1 0.47601517E+00 0.63919624E+01</pdfrwt>
<pdfrwt beam="1">  1       -1 0.37831366E+00 0.63919624E+01</pdfrwt>
<totfact> 0.32173465E-02</totfact>
</mgrwt>
</event>
<event>
 4    1  0.4231559E-004  0.6182196E+01  0.7818608E-02  0.2392297E+00
          1   -1    0    0  501    0  0.00000000000E+00  0.00000000000E+00  0.88450792187E+02  0.88450792331E+02  0.50400000000E-02 0. -1.
         -1   -1    0    0    0  501 -0.00000000000E+00 -0.00000000000E+00 -0.10796597135E+00  0.10808354440E+00  0.50400000000E-02 0.  1.
         31    1    1    2    0    0  0.11607329396E+01  0.32458542496E+00  0.39426210564E+02  0.39545811867E+02  0.28271010000E+01 0.  1.
        -31    1    1    2    0    0 -0.11607329396E+01 -0.32458542496E+00  0.48916615652E+02  0.49013064009E+02  0.28271010000E+01 0. -1.
<mgrwt>
<rscale>  0 0.61821964E+01</rscale>
<asrwt>0</asrwt>
<pdfrwt beam="1">  1        1 0.73226675E+00 0.61821964E+01</pdfrwt>
<pdfrwt beam="2">  1       -1 0.23004917E+00 0.61821964E+01</pdfrwt>
<totfact> 0.12771807E-02</totfact>
</mgrwt>
</event>
<event>
 4    1  0.4231559E-004  0.6853818E+01  0.7818608E-02  0.2315988E+00
          1   -1    0    0  501    0  0.00000000000E+00  0.00000000000E+00  0.38424572077E+02  0.38424572408E+02  0.50400000000E-02 0.  1.
         -1   -1    0    0    0  501 -0.00000000000E+00 -0.00000000000E+00 -0.30560895251E+00  0.30565050867E+00  0.50400000000E-02 0. -1.
         31    1    1    2    0    0 -0.19236906291E+01  0.22487919365E+00  0.19020326528E+02  0.19326574388E+02  0.28271010000E+01 0. -1.
        -31    1    1    2    0    0  0.19236906291E+01 -0.22487919365E+00  0.19098636597E+02  0.19403648528E+02  0.28271010000E+01 0.  1.
<mgrwt>
<rscale>  0 0.68538177E+01</rscale>
<asrwt>0</asrwt>
<pdfrwt beam="1">  1        1 0.32024858E+00 0.68538177E+01</pdfrwt>
<pdfrwt beam="2">  1       -1 0.64652046E+00 0.68538177E+01</pdfrwt>
<totfact> 0.35339009E-03</totfact>
</mgrwt>
</event>
<event>
 4    1  0.4231559E-004  0.7060399E+01  0.7818608E-02  0.2294947E+00
         -1   -1    0    0    0  501 -0.00000000000E+00  0.00000000000E+00  0.47117040652E+02  0.47117040922E+02  0.50400000000E-02 0.  1.
          1   -1    0    0  501    0  0.00000000000E+00 -0.00000000000E+00 -0.26447255194E+00  0.26452057071E+00  0.50400000000E-02 0. -1.
         31    1    1    2    0    0 -0.60469342855E-01 -0.16226893724E+01  0.14340446095E+02  0.14706382003E+02  0.28271010000E+01 0. -1.
        -31    1    1    2    0    0  0.60469342855E-01  0.16226893724E+01  0.32512122005E+02  0.32675179490E+02  0.28271010000E+01 0.  1.
<mgrwt>
<rscale>  0 0.70603988E+01</rscale>
<asrwt>0</asrwt>
<pdfrwt beam="2">  1        1 0.56081067E+00 0.70603988E+01</pdfrwt>
<pdfrwt beam="1">  1       -1 0.39178390E+00 0.70603988E+01</pdfrwt>
<totfact> 0.11208574E-02</totfact>
</mgrwt>
</event>
<event>
 4    1  0.4231559E-004  0.7164230E+01  0.7818608E-02  0.2284749E+00
          1   -1    0    0  501    0  0.00000000000E+00  0.00000000000E+00  0.71297330562E+02  0.71297330740E+02  0.50400000000E-02 0.  1.
         -1   -1    0    0    0  501 -0.00000000000E+00 -0.00000000000E+00 -0.17993685927E+00  0.18000743019E+00  0.50400000000E-02 0. -1.
         31    1    1    2    0    0 -0.16351266432E+01 -0.11008063881E+00  0.50198999891E+02  0.50305246714E+02  0.28271010000E+01 0.  1.
        -31    1    1    2    0    0  0.16351266432E+01  0.11008063881E+00  0.20918393812E+02  0.21172091456E+02  0.28271010000E+01 0. -1.
<mgrwt>
<rscale>  0 0.71642295E+01</rscale>
<asrwt>0</asrwt>
<pdfrwt beam="1">  1        1 0.59102464E+00 0.71642295E+01</pdfrwt>
<pdfrwt beam="2">  1       -1 0.38276990E+00 0.71642295E+01</pdfrwt>
<totfact> 0.91750119E-03</totfact>
</mgrwt>
</event>
<event>
 4    1  0.4231559E-004  0.7217721E+01  0.7818608E-02  0.2279588E+00
         -1   -1    0    0    0  501 -0.00000000000E+00  0.00000000000E+00  0.37896241223E+02  0.37896241559E+02  0.50400000000E-02 0. -1.
          1   -1    0    0  501    0  0.00000000000E+00 -0.00000000000E+00 -0.34365314868E+00  0.34369010489E+00  0.50400000000E-02 0.  1.
         31    1    1    2    0    0  0.72163593993E+00  0.12825185720E+00  0.30007895171E+02  0.30149684570E+02  0.28271010000E+01 0. -1.
        -31    1    1    2    0    0 -0.72163593993E+00 -0.12825185720E+00  0.75446929034E+01  0.80902470938E+01  0.28271010000E+01 0.  1.
<mgrwt>
<rscale>  0 0.72177214E+01</rscale>
<asrwt>0</asrwt>
<pdfrwt beam="2">  1        1 0.72619004E+00 0.72177214E+01</pdfrwt>
<pdfrwt beam="1">  1       -1 0.31619451E+00 0.72177214E+01</pdfrwt>
<totfact> 0.42364340E-03</totfact>
</mgrwt>
</event>
<event>
 4    1  0.4231559E-004  0.6356664E+01  0.7818608E-02  0.2371193E+00
          1   -1    0    0  501    0  0.00000000000E+00  0.00000000000E+00  0.40173817901E+02  0.40173818218E+02  0.50400000000E-02 0. -1.
         -1   -1    0    0    0  501 -0.00000000000E+00 -0.00000000000E+00 -0.25142664067E+00  0.25147715053E+00  0.50400000000E-02 0.  1.
         31    1    1    2    0    0  0.24485635526E+00 -0.25108137750E+00  0.10998343792E+02  0.11361296701E+02  0.28271010000E+01 0.  1.
        -31    1    1    2    0    0 -0.24485635526E+00  0.25108137750E+00  0.28924047469E+02  0.29063998667E+02  0.28271010000E+01 0. -1.
<mgrwt>
<rscale>  0 0.63566643E+01</rscale>
<asrwt>0</asrwt>
<pdfrwt beam="1">  1        1 0.33426463E+00 0.63566643E+01</pdfrwt>
<pdfrwt beam="2">  1       -1 0.53281019E+00 0.63566643E+01</pdfrwt>
<totfact> 0.11330002E-02</totfact>
</mgrwt>
</event>
<event>
 4    1  0.4231559E-004  0.6216269E+01  0.7818608E-02  0.2388098E+00
          1   -1    0    0  501    0  0.00000000000E+00  0.00000000000E+00  0.86797711114E+02  0.86797711260E+02  0.50400000000E-02 0.  1.
         -1   -1    0    0    0  501 -0.00000000000E+00 -0.00000000000E+00 -0.11124180825E+00  0.11135592262E+00  0.50400000000E-02 0. -1.
         31    1    1    2    0    0  0.23431945217E+00 -0.98286225265E+00  0.54589616220E+02  0.54672110102E+02  0.28271010000E+01 0.  1.
        -31    1    1    2    0    0 -0.23431945217E+00  0.98286225265E+00  0.32096853085E+02  0.32236957081E+02  0.28271010000E+01 0. -1.
<mgrwt>
<rscale>  0 0.62162688E+01</rscale>
<asrwt>0</asrwt>
<pdfrwt beam="1">  1        1 0.71862497E+00 0.62162688E+01</pdfrwt>
<pdfrwt beam="2">  1       -1 0.23700726E+00 0.62162688E+01</pdfrwt>
<totfact> 0.14070433E-02</totfact>
</mgrwt>
</event>
<event>
 4    1  0.4231559E-004  0.5842725E+01  0.7818608E-02  0.2436354E+00
          1   -1    0    0  501    0  0.00000000000E+00  0.00000000000E+00  0.48454948510E+02  0.48454948772E+02  0.50400000000E-02 0.  1.
         -1   -1    0    0    0  501 -0.00000000000E+00 -0.00000000000E+00 -0.17609343738E+00  0.17616554796E+00  0.50400000000E-02 0. -1.
         31    1    1    2    0    0 -0.12639850770E+00  0.63616848566E+00  0.21242093589E+02  0.21439210038E+02  0.28271010000E+01 0. -1.
        -31    1    1    2    0    0  0.12639850770E+00 -0.63616848566E+00  0.27036761483E+02  0.27191904282E+02  0.28271010000E+01 0.  1.
<mgrwt>
<rscale>  0 0.58427248E+01</rscale>
<asrwt>0</asrwt>
<pdfrwt beam="1">  1        1 0.40211608E+00 0.58427248E+01</pdfrwt>
<pdfrwt beam="2">  1       -1 0.37418279E+00 0.58427248E+01</pdfrwt>
<totfact> 0.68279250E-02</totfact>
</mgrwt>
</event>
<event>
 4    1  0.4231559E-004  0.6266518E+01  0.7818608E-02  0.2381975E+00
         -1   -1    0    0    0  501 -0.00000000000E+00  0.00000000000E+00  0.54926839913E+02  0.54926840144E+02  0.50400000000E-02 0.  1.
          1   -1    0    0  501    0  0.00000000000E+00 -0.00000000000E+00 -0.17869857344E+00  0.17876963318E+00  0.50400000000E-02 0. -1.
         31    1    1    2    0    0  0.21859996660E+00 -0.90507817751E+00  0.18767691756E+02  0.19002255297E+02  0.28271010000E+01 0.  1.
        -31    1    1    2    0    0 -0.21859996660E+00  0.90507817751E+00  0.35980449583E+02  0.36103354480E+02  0.28271010000E+01 0.  1.
<mgrwt>
<rscale>  0 0.62665181E+01</rscale>
<asrwt>0</asrwt>
<pdfrwt beam="2">  1        1 0.37986034E+00 0.62665181E+01</pdfrwt>
<pdfrwt beam="1">  1       -1 0.45565174E+00 0.62665181E+01</pdfrwt>
<totfact> 0.25272881E-02</totfact>
</mgrwt>
</event>
<event>
 4    1  0.4231559E-004  0.6032135E+01  0.7818608E-02  0.2411260E+00
          1   -1    0    0  501    0  0.00000000000E+00  0.00000000000E+00  0.49716207206E+02  0.49716207462E+02  0.50400000000E-02 0.  1.
         -1   -1    0    0    0  501 -0.00000000000E+00 -0.00000000000E+00 -0.18293681698E+00  0.18300623106E+00  0.50400000000E-02 0. -1.
         31    1    1    2    0    0 -0.34040512034E+00  0.29083909432E+00  0.32630476797E+02  0.32755777797E+02  0.28271010000E+01 0.  1.
        -31    1    1    2    0    0  0.34040512034E+00 -0.29083909432E+00  0.16902793593E+02  0.17143435896E+02  0.28271010000E+01 0. -1.
<mgrwt>
<rscale>  0 0.60321349E+01</rscale>
<asrwt>0</asrwt>
<pdfrwt beam="1">  1        1 0.41260161E+00 0.60321349E+01</pdfrwt>
<pdfrwt beam="2">  1       -1 0.38870091E+00 0.60321349E+01</pdfrwt>
<totfact> 0.50567996E-02</totfact>
</mgrwt>
</event>
<event>
 4    1  0.4231559E-004  0.6180959E+01  0.7818608E-02  0.2392450E+00
         -1   -1    0    0    0  501 -0.00000000000E+00  0.00000000000E+00  0.76177210456E+02  0.76177210623E+02  0.50400000000E-02 0. -1.
          1   -1    0    0  501    0  0.00000000000E+00 -0.00000000000E+00 -0.12532873398E+00  0.12543003293E+00  0.50400000000E-02 0.  1.
         31    1    1    2    0    0  0.73420474056E+00 -0.93469680354E+00  0.42740448296E+02  0.42850334133E+02  0.28271010000E+01 0. -1.
        -31    1    1    2    0    0 -0.73420474056E+00  0.93469680354E+00  0.33311433427E+02  0.33452306523E+02  0.28271010000E+01 0. -1.
<mgrwt>
<rscale>  0 0.61809593E+01</rscale>
<asrwt>0</asrwt>
<pdfrwt beam="2">  1        1 0.26689434E+00 0.61809593E+01</pdfrwt>
<pdfrwt beam="1">  1       -1 0.63092362E+00 0.61809593E+01</pdfrwt>
<totfact> 0.62868793E-03</totfact>
</mgrwt>
</event>
<event>
 4    1  0.4231559E-004  0.5949986E+01  0.7818608E-02  0.2421979E+00
         -1   -1    0    0    0  501 -0.00000000000E+00  0.00000000000E+00  0.41658341805E+02  0.41658342110E+02  0.50400000000E-02 0. -1.
          1   -1    0    0  501    0  0.00000000000E+00 -0.00000000000E+00 -0.21242626639E+00  0.21248604719E+00  0.50400000000E-02 0.  1.
         31    1    1    2    0    0 -0.59897462579E+00  0.53933988770E+00  0.17510249586E+02  0.17755309030E+02  0.28271010000E+01 0.  1.
        -31    1    1    2    0    0  0.59897462579E+00 -0.53933988770E+00  0.23935665953E+02  0.24115519127E+02  0.28271010000E+01 0. -1.
<mgrwt>
<rscale>  0 0.59499862E+01</rscale>
<asrwt>0</asrwt>
<pdfrwt beam="2">  1        1 0.45069997E+00 0.59499862E+01</pdfrwt>
<pdfrwt beam="1">  1       -1 0.34621730E+00 0.59499862E+01</pdfrwt>
<totfact> 0.63965205E-02</totfact>
</mgrwt>
</event>
<event>
 4    1  0.4231559E-004  0.6005479E+01  0.7818608E-02  0.2414711E+00
         -1   -1    0    0    0  501 -0.00000000000E+00  0.00000000000E+00  0.50781538421E+02  0.50781538671E+02  0.50400000000E-02 0. -1.
          1   -1    0    0  501    0  0.00000000000E+00 -0.00000000000E+00 -0.17751756703E+00  0.17758909934E+00  0.50400000000E-02 0.  1.
         31    1    1    2    0    0 -0.18840643081E+00 -0.33468915597E+00  0.33245896789E+02  0.33368093550E+02  0.28271010000E+01 0. -1.
        -31    1    1    2    0    0  0.18840643081E+00  0.33468915597E+00  0.17358124065E+02  0.17591034220E+02  0.28271010000E+01 0.  1.
<mgrwt>
<rscale>  0 0.60054789E+01</rscale>
<asrwt>0</asrwt>
<pdfrwt beam="2">  1        1 0.37725975E+00 0.60054789E+01</pdfrwt>
<pdfrwt beam="1">  1       -1 0.42136572E+00 0.60054789E+01</pdfrwt>
<totfact> 0.43467009E-02</totfact>
</mgrwt>
</event>
<event>
 4    1  0.4231559E-004  0.6938465E+01  0.7818608E-02  0.2307242E+00
          1   -1    0    0  501    0  0.00000000000E+00  0.00000000000E+00  0.68629832780E+02  0.68629832965E+02  0.50400000000E-02 0. -1.
         -1   -1    0    0    0  501 -0.00000000000E+00 -0.00000000000E+00 -0.17533302974E+00  0.17540545293E+00  0.50400000000E-02 0.  1.
         31    1    1    2    0    0 -0.65531126356E+00  0.24708006649E+00  0.15536323716E+02  0.15806971123E+02  0.28271010000E+01 0.  1.
        -31    1    1    2    0    0  0.65531126356E+00 -0.24708006649E+00  0.52918176035E+02  0.52998267295E+02  0.28271010000E+01 0. -1.
<mgrwt>
<rscale>  0 0.69384651E+01</rscale>
<asrwt>0</asrwt>
<pdfrwt beam="1">  1        1 0.56892985E+00 0.69384651E+01</pdfrwt>
<pdfrwt beam="2">  1       -1 0.37296878E+00 0.69384651E+01</pdfrwt>
<totfact> 0.13439454E-02</totfact>
</mgrwt>
</event>
<event>
 4    1  0.4231559E-004  0.6539632E+01  0.7818608E-02  0.2350070E+00
          1   -1    0    0  501    0  0.00000000000E+00  0.00000000000E+00  0.51998094109E+02  0.51998094353E+02  0.50400000000E-02 0.  1.
         -1   -1    0    0    0  501 -0.00000000000E+00 -0.00000000000E+00 -0.20558597575E+00  0.20564774501E+00  0.50400000000E-02 0. -1.
         31    1    1    2    0    0 -0.15140460813E+01  0.17648896063E+00  0.21003236431E+02  0.21247398065E+02  0.28271010000E+01 0. -1.
        -31    1    1    2    0    0  0.15140460813E+01 -0.17648896063E+00  0.30789271702E+02  0.30956344033E+02  0.28271010000E+01 0.  1.
<mgrwt>
<rscale>  0 0.65396323E+01</rscale>
<asrwt>0</asrwt>
<pdfrwt beam="1">  1        1 0.43165706E+00 0.65396323E+01</pdfrwt>
<pdfrwt beam="2">  1       -1 0.43668894E+00 0.65396323E+01</pdfrwt>
<totfact> 0.20925173E-02</totfact>
</mgrwt>
</event>
<event>
 4    1  0.4231559E-004  0.6001832E+01  0.7818608E-02  0.2415185E+00
          1   -1    0    0  501    0  0.00000000000E+00  0.00000000000E+00  0.35227510265E+02  0.35227510626E+02  0.50400000000E-02 0. -1.
         -1   -1    0    0    0  501 -0.00000000000E+00 -0.00000000000E+00 -0.25561294375E+00  0.25566262655E+00  0.50400000000E-02 0.  1.
         31    1    1    2    0    0 -0.98719831939E+00 -0.18740984707E+00  0.17145688780E+02  0.17406229539E+02  0.28271010000E+01 0.  1.
        -31    1    1    2    0    0  0.98719831939E+00  0.18740984707E+00  0.17826208542E+02  0.18076943713E+02  0.28271010000E+01 0. -1.
<mgrwt>
<rscale>  0 0.60018315E+01</rscale>
<asrwt>0</asrwt>
<pdfrwt beam="1">  1        1 0.29339970E+00 0.60018315E+01</pdfrwt>
<pdfrwt beam="2">  1       -1 0.54114334E+00 0.60018315E+01</pdfrwt>
<totfact> 0.14338195E-02</totfact>
</mgrwt>
</event>
<event>
 4    1  0.4231559E-004  0.6784974E+01  0.7818608E-02  0.2323233E+00
          1   -1    0    0  501    0  0.00000000000E+00  0.00000000000E+00  0.80442690283E+02  0.80442690441E+02  0.50400000000E-02 0.  1.
         -1   -1    0    0    0  501 -0.00000000000E+00 -0.00000000000E+00 -0.14302586710E+00  0.14311464027E+00  0.50400000000E-02 0. -1.
         31    1    1    2    0    0 -0.91578170211E+00  0.13595682815E+01  0.29333279171E+02  0.29514756462E+02  0.28271010000E+01 0. -1.
        -31    1    1    2    0    0  0.91578170211E+00 -0.13595682815E+01  0.50966385245E+02  0.51071048619E+02  0.28271010000E+01 0.  1.
<mgrwt>
<rscale>  0 0.67849742E+01</rscale>
<asrwt>0</asrwt>
<pdfrwt beam="1">  1        1 0.66633982E+00 0.67849742E+01</pdfrwt>
<pdfrwt beam="2">  1       -1 0.30451243E+00 0.67849742E+01</pdfrwt>
<totfact> 0.11141395E-02</totfact>
</mgrwt>
</event>
<event>
 4    1  0.4231559E-004  0.7642190E+01  0.7818608E-02  0.2240741E+00
          1   -1    0    0  501    0  0.00000000000E+00  0.00000000000E+00  0.62538076016E+02  0.62538076219E+02  0.50400000000E-02 0.  1.
         -1   -1    0    0    0  501 -0.00000000000E+00 -0.00000000000E+00 -0.23344263248E+00  0.23349703266E+00  0.50400000000E-02 0. -1.
         31    1    1    2    0    0  0.16472472289E+01 -0.19734765556E+01  0.31026763805E+02  0.31261167691E+02  0.28271010000E+01 0. -1.
        -31    1    1    2    0    0 -0.16472472289E+01  0.19734765556E+01  0.31277869579E+02  0.31510405560E+02  0.28271010000E+01 0.  1.
<mgrwt>
<rscale>  0 0.76421900E+01</rscale>
<asrwt>0</asrwt>
<pdfrwt beam="1">  1        1 0.51903929E+00 0.76421900E+01</pdfrwt>
<pdfrwt beam="2">  1       -1 0.49595219E+00 0.76421900E+01</pdfrwt>
<totfact> 0.35106331E-03</totfact>
</mgrwt>
</event>
<event>
 4    1  0.4231559E-004  0.5684173E+01  0.7818608E-02  0.2458436E+00
          1   -1    0    0  501    0  0.00000000000E+00  0.00000000000E+00  0.57209816832E+02  0.57209817054E+02  0.50400000000E-02 0. -1.
         -1   -1    0    0    0  501 -0.00000000000E+00 -0.00000000000E+00 -0.14114481091E+00  0.14123476642E+00  0.50400000000E-02 0.  1.
         31    1    1    2    0    0 -0.26892418843E+00 -0.85238471228E-01  0.27795050663E+02  0.27939880588E+02  0.28271010000E+01 0. -1.
        -31    1    1    2    0    0  0.26892418843E+00  0.85238471228E-01  0.29273621358E+02  0.29411171232E+02  0.28271010000E+01 0.  1.
<mgrwt>
<rscale>  0 0.56841726E+01</rscale>
<asrwt>0</asrwt>
<pdfrwt beam="1">  1        1 0.47421862E+00 0.56841726E+01</pdfrwt>
<pdfrwt beam="2">  1       -1 0.30030343E+00 0.56841726E+01</pdfrwt>
<totfact> 0.94747997E-02</totfact>
</mgrwt>
</event>
<event>
 4    1  0.4231559E-004  0.5711307E+01  0.7818608E-02  0.2454583E+00
         -1   -1    0    0    0  501 -0.00000000000E+00  0.00000000000E+00  0.30503331428E+02  0.30503331844E+02  0.50400000000E-02 0.  1.
          1   -1    0    0  501    0  0.00000000000E+00 -0.00000000000E+00 -0.26731566551E+00  0.26736317365E+00  0.50400000000E-02 0. -1.
         31    1    1    2    0    0  0.24885588148E+00 -0.31448329326E+00  0.15321503926E+02  0.15585307556E+02  0.28271010000E+01 0. -1.
        -31    1    1    2    0    0 -0.24885588148E+00  0.31448329326E+00  0.14914511836E+02  0.15185387462E+02  0.28271010000E+01 0. -1.
<mgrwt>
<rscale>  0 0.57113066E+01</rscale>
<asrwt>0</asrwt>
<pdfrwt beam="2">  1        1 0.56506812E+00 0.57113066E+01</pdfrwt>
<pdfrwt beam="1">  1       -1 0.25443364E+00 0.57113066E+01</pdfrwt>
<totfact> 0.70493999E-02</totfact>
</mgrwt>
</event>
<event>
 4    1  0.4231559E-004  0.6477817E+01  0.7818608E-02  0.2357095E+00
         -1   -1    0    0    0  501 -0.00000000000E+00  0.00000000000E+00  0.35815903674E+02  0.35815904029E+02  0.50400000000E-02 0.  1.
          1   -1    0    0  501    0  0.00000000000E+00 -0.00000000000E+00 -0.29287937918E+00  0.29292274127E+00  0.50400000000E-02 0. -1.
         31    1    1    2    0    0  0.54748150209E+00  0.69062777519E+00  0.25074860664E+02  0.25249115630E+02  0.28271010000E+01 0.  1.
        -31    1    1    2    0    0 -0.54748150209E+00 -0.69062777519E+00  0.10448163631E+02  0.10859711140E+02  0.28271010000E+01 0. -1.
<mgrwt>
<rscale>  0 0.64778172E+01</rscale>
<asrwt>0</asrwt>
<pdfrwt beam="2">  1        1 0.61945700E+00 0.64778172E+01</pdfrwt>
<pdfrwt beam="1">  1       -1 0.29857304E+00 0.64778172E+01</pdfrwt>
<totfact> 0.21244283E-02</totfact>
</mgrwt>
</event>
<event>
 4    1  0.4231559E-004  0.6242045E+01  0.7818608E-02  0.2384947E+00
          1   -1    0    0  501    0  0.00000000000E+00  0.00000000000E+00  0.47464539934E+02  0.47464540202E+02  0.50400000000E-02 0. -1.
         -1   -1    0    0    0  501 -0.00000000000E+00 -0.00000000000E+00 -0.20519110605E+00  0.20525299414E+00  0.50400000000E-02 0.  1.
         31    1    1    2    0    0 -0.34209881348E+00  0.54724807887E+00  0.14816526002E+02  0.15097630771E+02  0.28271010000E+01 0.  1.
        -31    1    1    2    0    0  0.34209881348E+00 -0.54724807887E+00  0.32442822826E+02  0.32572162425E+02  0.28271010000E+01 0. -1.
<mgrwt>
<rscale>  0 0.62420455E+01</rscale>
<asrwt>0</asrwt>
<pdfrwt beam="1">  1        1 0.39416720E+00 0.62420455E+01</pdfrwt>
<pdfrwt beam="2">  1       -1 0.43569016E+00 0.62420455E+01</pdfrwt>
<totfact> 0.30091163E-02</totfact>
</mgrwt>
</event>
<event>
 4    1  0.4231559E-004  0.7676238E+01  0.7818608E-02  0.2237777E+00
          1   -1    0    0  501    0  0.00000000000E+00  0.00000000000E+00  0.62088543821E+02  0.62088544026E+02  0.50400000000E-02 0. -1.
         -1   -1    0    0    0  501 -0.00000000000E+00 -0.00000000000E+00 -0.23723350079E+00  0.23728703187E+00  0.50400000000E-02 0.  1.
         31    1    1    2    0    0 -0.19991170231E+01 -0.16535396493E+01  0.31651635867E+02  0.31883368947E+02  0.28271010000E+01 0. -1.
        -31    1    1    2    0    0  0.19991170231E+01  0.16535396493E+01  0.30199674453E+02  0.30442462111E+02  0.28271010000E+01 0.  1.
<mgrwt>
<rscale>  0 0.76762379E+01</rscale>
<asrwt>0</asrwt>
<pdfrwt beam="1">  1        1 0.51535358E+00 0.76762379E+01</pdfrwt>
<pdfrwt beam="2">  1       -1 0.50395985E+00 0.76762379E+01</pdfrwt>
<totfact> 0.32083228E-03</totfact>
</mgrwt>
</event>
<event>
 4    1  0.4231559E-004  0.6252085E+01  0.7818608E-02  0.2383725E+00
         -1   -1    0    0    0  501 -0.00000000000E+00  0.00000000000E+00  0.40146977511E+02  0.40146977828E+02  0.50400000000E-02 0. -1.
          1   -1    0    0  501    0  0.00000000000E+00 -0.00000000000E+00 -0.24338273092E+00  0.24343490980E+00  0.50400000000E-02 0.  1.
         31    1    1    2    0    0 -0.10618501336E+01  0.29310233424E+00  0.15090627192E+02  0.15392626930E+02  0.28271010000E+01 0.  1.
        -31    1    1    2    0    0  0.10618501336E+01 -0.29310233424E+00  0.24812967588E+02  0.24997785808E+02  0.28271010000E+01 0. -1.
<mgrwt>
<rscale>  0 0.62520848E+01</rscale>
<asrwt>0</asrwt>
<pdfrwt beam="2">  1        1 0.51586801E+00 0.62520848E+01</pdfrwt>
<pdfrwt beam="1">  1       -1 0.33397619E+00 0.62520848E+01</pdfrwt>
<totfact> 0.40051396E-02</totfact>
</mgrwt>
</event>
<event>
 4    1  0.4231559E-004  0.6779071E+01  0.7818608E-02  0.2323860E+00
          1   -1    0    0  501    0  0.00000000000E+00  0.00000000000E+00  0.33167251626E+02  0.33167252009E+02  0.50400000000E-02 0. -1.
         -1   -1    0    0    0  501 -0.00000000000E+00 -0.00000000000E+00 -0.34637568329E+00  0.34641234905E+00  0.50400000000E-02 0.  1.
         31    1    1    2    0    0  0.14378983034E+01 -0.78387992245E+00  0.11948958733E+02  0.12387579834E+02  0.28271010000E+01 0.  1.
        -31    1    1    2    0    0 -0.14378983034E+01  0.78387992245E+00  0.20871917210E+02  0.21126084525E+02  0.28271010000E+01 0. -1.
<mgrwt>
<rscale>  0 0.67790708E+01</rscale>
<asrwt>0</asrwt>
<pdfrwt beam="1">  1        1 0.27711443E+00 0.67790708E+01</pdfrwt>
<pdfrwt beam="2">  1       -1 0.73094650E+00 0.67790708E+01</pdfrwt>
<totfact> 0.34898378E-03</totfact>
</mgrwt>
</event>
<event>
 4    1  0.4231559E-004  0.6120767E+01  0.7818608E-02  0.2399966E+00
          1   -1    0    0  501    0  0.00000000000E+00  0.00000000000E+00  0.52177542942E+02  0.52177543185E+02  0.50400000000E-02 0.  1.
         -1   -1    0    0    0  501 -0.00000000000E+00 -0.00000000000E+00 -0.17946589373E+00  0.17953664977E+00  0.50400000000E-02 0. -1.
         31    1    1    2    0    0 -0.93088454119E+00  0.57769691482E+00  0.22439418481E+02  0.22643327529E+02  0.28271010000E+01 0. -1.
        -31    1    1    2    0    0  0.93088454119E+00 -0.57769691482E+00  0.29558658567E+02  0.29713752306E+02  0.28271010000E+01 0.  1.
<mgrwt>
<rscale>  0 0.61207673E+01</rscale>
<asrwt>0</asrwt>
<pdfrwt beam="1">  1        1 0.43292497E+00 0.61207673E+01</pdfrwt>
<pdfrwt beam="2">  1       -1 0.38142002E+00 0.61207673E+01</pdfrwt>
<totfact> 0.46427591E-02</totfact>
</mgrwt>
</event>
<event>
 4    1  0.4231559E-004  0.5725443E+01  0.7818608E-02  0.2452589E+00
         -1   -1    0    0    0  501 -0.00000000000E+00  0.00000000000E+00  0.43229502083E+02  0.43229502377E+02  0.50400000000E-02 0. -1.
          1   -1    0    0  501    0  0.00000000000E+00 -0.00000000000E+00 -0.18953983421E+00  0.18960683098E+00  0.50400000000E-02 0.  1.
         31    1    1    2    0    0  0.10846021145E+00  0.29995152125E+00  0.19110624216E+02  0.19321236827E+02  0.28271010000E+01 0.  1.
        -31    1    1    2    0    0 -0.10846021145E+00 -0.29995152125E+00  0.23929338033E+02  0.24097872381E+02  0.28271010000E+01 0. -1.
<mgrwt>
<rscale>  0 0.57254427E+01</rscale>
<asrwt>0</asrwt>
<pdfrwt beam="2">  1        1 0.40244302E+00 0.57254427E+01</pdfrwt>
<pdfrwt beam="1">  1       -1 0.35901957E+00 0.57254427E+01</pdfrwt>
<totfact> 0.83940785E-02</totfact>
</mgrwt>
</event>
<event>
 4    1  0.4231559E-004  0.6665329E+01  0.7818608E-02  0.2336117E+00
         -1   -1    0    0    0  501 -0.00000000000E+00  0.00000000000E+00  0.67154400745E+02  0.67154400934E+02  0.50400000000E-02 0.  1.
          1   -1    0    0  501    0  0.00000000000E+00 -0.00000000000E+00 -0.16535118790E+00  0.16542798113E+00  0.50400000000E-02 0. -1.
         31    1    1    2    0    0 -0.99843989663E+00 -0.13688347842E+01  0.38479059205E+02  0.38619957124E+02  0.28271010000E+01 0.  1.
        -31    1    1    2    0    0  0.99843989663E+00  0.13688347842E+01  0.28509990353E+02  0.28699871792E+02  0.28271010000E+01 0. -1.
<mgrwt>
<rscale>  0 0.66653285E+01</rscale>
<asrwt>0</asrwt>
<pdfrwt beam="2">  1        1 0.35177687E+00 0.66653285E+01</pdfrwt>
<pdfrwt beam="1">  1       -1 0.55664745E+00 0.66653285E+01</pdfrwt>
<totfact> 0.67823897E-03</totfact>
</mgrwt>
</event>
<event>
 4    1  0.4231559E-004  0.7519970E+01  0.7818608E-02  0.2251561E+00
          1   -1    0    0  501    0  0.00000000000E+00  0.00000000000E+00  0.67055488118E+02  0.67055488307E+02  0.50400000000E-02 0.  1.
         -1   -1    0    0    0  501 -0.00000000000E+00 -0.00000000000E+00 -0.21080236980E+00  0.21086261099E+00  0.50400000000E-02 0. -1.
         31    1    1    2    0    0 -0.10564725443E+01  0.12696004049E+01  0.16887417093E+02  0.17201900348E+02  0.28271010000E+01 0. -1.
        -31    1    1    2    0    0  0.10564725443E+01 -0.12696004049E+01  0.49957268655E+02  0.50064450571E+02  0.28271010000E+01 0.  1.
<mgrwt>
<rscale>  0 0.75199703E+01</rscale>
<asrwt>0</asrwt>
<pdfrwt beam="1">  1        1 0.55620525E+00 0.75199703E+01</pdfrwt>
<pdfrwt beam="2">  1       -1 0.44812745E+00 0.75199703E+01</pdfrwt>
<totfact> 0.50638083E-03</totfact>
</mgrwt>
</event>
<event>
 4    1  0.4231559E-004  0.5898277E+01  0.7818608E-02  0.2428854E+00
          1   -1    0    0  501    0  0.00000000000E+00  0.00000000000E+00  0.71611211780E+02  0.71611211957E+02  0.50400000000E-02 0. -1.
         -1   -1    0    0    0  501 -0.00000000000E+00 -0.00000000000E+00 -0.12140083416E+00  0.12150540784E+00  0.50400000000E-02 0.  1.
         31    1    1    2    0    0  0.16730638578E+00  0.52364897334E+00  0.43462691196E+02  0.43558009892E+02  0.28271010000E+01 0. -1.
        -31    1    1    2    0    0 -0.16730638578E+00 -0.52364897334E+00  0.28027119750E+02  0.28174707474E+02  0.28271010000E+01 0.  1.
<mgrwt>
<rscale>  0 0.58982770E+01</rscale>
<asrwt>0</asrwt>
<pdfrwt beam="1">  1        1 0.59313630E+00 0.58982770E+01</pdfrwt>
<pdfrwt beam="2">  1       -1 0.25852361E+00 0.58982770E+01</pdfrwt>
<totfact> 0.49247376E-02</totfact>
</mgrwt>
</event>
<event>
 4    1  0.4231559E-004  0.5961602E+01  0.7818608E-02  0.2420448E+00
          1   -1    0    0  501    0  0.00000000000E+00  0.00000000000E+00  0.45476760706E+02  0.45476760985E+02  0.50400000000E-02 0.  1.
         -1   -1    0    0    0  501 -0.00000000000E+00 -0.00000000000E+00 -0.19534560211E+00  0.19541060837E+00  0.50400000000E-02 0. -1.
         31    1    1    2    0    0  0.55965866483E+00 -0.57688305345E+00  0.18835821620E+02  0.19063753251E+02  0.28271010000E+01 0. -1.
        -31    1    1    2    0    0 -0.55965866483E+00  0.57688305345E+00  0.26445593484E+02  0.26608418342E+02  0.28271010000E+01 0.  1.
<mgrwt>
<rscale>  0 0.59616025E+01</rscale>
<asrwt>0</asrwt>
<pdfrwt beam="1">  1        1 0.37764947E+00 0.59616025E+01</pdfrwt>
<pdfrwt beam="2">  1       -1 0.41480266E+00 0.59616025E+01</pdfrwt>
<totfact> 0.47708290E-02</totfact>
</mgrwt>
</event>
<event>
 4    1  0.4231559E-004  0.5874858E+01  0.7818608E-02  0.2432001E+00
          1   -1    0    0  501    0  0.00000000000E+00  0.00000000000E+00  0.76302427260E+02  0.76302427426E+02  0.50400000000E-02 0.  1.
         -1   -1    0    0    0  501 -0.00000000000E+00 -0.00000000000E+00 -0.11302642180E+00  0.11313873618E+00  0.50400000000E-02 0. -1.
         31    1    1    2    0    0 -0.58402691546E+00  0.45923491513E+00  0.41864635307E+02  0.41966560183E+02  0.28271010000E+01 0.  1.
        -31    1    1    2    0    0  0.58402691546E+00 -0.45923491513E+00  0.34324765531E+02  0.34449005979E+02  0.28271010000E+01 0. -1.
<mgrwt>
<rscale>  0 0.58748576E+01</rscale>
<asrwt>0</asrwt>
<pdfrwt beam="1">  1        1 0.63185737E+00 0.58748576E+01</pdfrwt>
<pdfrwt beam="2">  1       -1 0.24075761E+00 0.58748576E+01</pdfrwt>
<totfact> 0.40532255E-02</totfact>
</mgrwt>
</event>
<event>
 4    1  0.4231559E-004  0.6383214E+01  0.7818608E-02  0.2368065E+00
         -1   -1    0    0    0  501 -0.00000000000E+00  0.00000000000E+00  0.64302016179E+02  0.64302016377E+02  0.50400000000E-02 0. -1.
          1   -1    0    0  501    0  0.00000000000E+00 -0.00000000000E+00 -0.15837397196E+00  0.15845414666E+00  0.50400000000E-02 0.  1.
         31    1    1    2    0    0  0.12424501396E+01 -0.75362203718E+00  0.29176060351E+02  0.29348707403E+02  0.28271010000E+01 0.  1.
        -31    1    1    2    0    0 -0.12424501396E+01  0.75362203718E+00  0.34967581856E+02  0.35111763121E+02  0.28271010000E+01 0. -1.
<mgrwt>
<rscale>  0 0.63832143E+01</rscale>
<asrwt>0</asrwt>
<pdfrwt beam="2">  1        1 0.33693998E+00 0.63832143E+01</pdfrwt>
<pdfrwt beam="1">  1       -1 0.53300427E+00 0.63832143E+01</pdfrwt>
<totfact> 0.11028957E-02</totfact>
</mgrwt>
</event>
<event>
 4    1  0.4231559E-004  0.6755476E+01  0.7818608E-02  0.2326375E+00
          1   -1    0    0  501    0  0.00000000000E+00  0.00000000000E+00  0.64727223009E+02  0.64727223205E+02  0.50400000000E-02 0.  1.
         -1   -1    0    0    0  501 -0.00000000000E+00 -0.00000000000E+00 -0.17622832496E+00  0.17630038037E+00  0.50400000000E-02 0. -1.
         31    1    1    2    0    0  0.11027056274E+01  0.11698521641E+01  0.23511538916E+02  0.23735405538E+02  0.28271010000E+01 0.  1.
        -31    1    1    2    0    0 -0.11027056274E+01 -0.11698521641E+01  0.41039455768E+02  0.41168118048E+02  0.28271010000E+01 0.  1.
<mgrwt>
<rscale>  0 0.67554762E+01</rscale>
<asrwt>0</asrwt>
<pdfrwt beam="1">  1        1 0.53666774E+00 0.67554762E+01</pdfrwt>
<pdfrwt beam="2">  1       -1 0.37480971E+00 0.67554762E+01</pdfrwt>
<totfact> 0.18411539E-02</totfact>
</mgrwt>
</event>
<event>
 4    1  0.4231559E-004  0.6906374E+01  0.7818608E-02  0.2310537E+00
         -1   -1    0    0    0  501 -0.00000000000E+00  0.00000000000E+00  0.42738910325E+02  0.42738910622E+02  0.50400000000E-02 0. -1.
          1   -1    0    0  501    0  0.00000000000E+00 -0.00000000000E+00 -0.27898502553E+00  0.27903054684E+00  0.50400000000E-02 0.  1.
         31    1    1    2    0    0  0.67186601719E+00 -0.98743150292E+00  0.11370497774E+02  0.11777399739E+02  0.28271010000E+01 0. -1.
        -31    1    1    2    0    0 -0.67186601719E+00  0.98743150292E+00  0.31089427525E+02  0.31240541430E+02  0.28271010000E+01 0. -1.
<mgrwt>
<rscale>  0 0.69063743E+01</rscale>
<asrwt>0</asrwt>
<pdfrwt beam="2">  1        1 0.59104122E+00 0.69063743E+01</pdfrwt>
<pdfrwt beam="1">  1       -1 0.35570244E+00 0.69063743E+01</pdfrwt>
<totfact> 0.13438122E-02</totfact>
</mgrwt>
</event>
<event>
 4    1  0.4231559E-004  0.9353828E+01  0.7818608E-02  0.2113742E+00
         -1   -1    0    0    0  501 -0.00000000000E+00  0.00000000000E+00  0.80737477837E+02  0.80737477994E+02  0.50400000000E-02 0. -1.
          1   -1    0    0  501    0  0.00000000000E+00 -0.00000000000E+00 -0.27089800191E+00  0.27094488192E+00  0.50400000000E-02 0.  1.
         31    1    1    2    0    0 -0.22872773122E+01  0.26069236583E+01  0.28443173196E+02  0.28792955561E+02  0.28271010000E+01 0.  1.
        -31    1    1    2    0    0  0.22872773122E+01 -0.26069236583E+01  0.52023406640E+02  0.52215467315E+02  0.28271010000E+01 0.  1.
<mgrwt>
<rscale>  0 0.93538284E+01</rscale>
<asrwt>0</asrwt>
<pdfrwt beam="2">  1        1 0.57572593E+00 0.93538284E+01</pdfrwt>
<pdfrwt beam="1">  1       -1 0.66983432E+00 0.93538284E+01</pdfrwt>
<totfact> 0.25822307E-04</totfact>
</mgrwt>
</event>
<event>
 4    1  0.4231559E-004  0.6276353E+01  0.7818608E-02  0.2380786E+00
         -1   -1    0    0    0  501 -0.00000000000E+00  0.00000000000E+00  0.35993133368E+02  0.35993133721E+02  0.50400000000E-02 0.  1.
          1   -1    0    0  501    0  0.00000000000E+00 -0.00000000000E+00 -0.27358836613E+00  0.27363478522E+00  0.50400000000E-02 0. -1.
         31    1    1    2    0    0  0.12175566316E+01 -0.35445298864E+00  0.20734853821E+02  0.20965083928E+02  0.28271010000E+01 0. -1.
        -31    1    1    2    0    0 -0.12175566316E+01  0.35445298864E+00  0.14984691181E+02  0.15301684578E+02  0.28271010000E+01 0.  1.
<mgrwt>
<rscale>  0 0.62763527E+01</rscale>
<asrwt>0</asrwt>
<pdfrwt beam="2">  1        1 0.57899256E+00 0.62763527E+01</pdfrwt>
<pdfrwt beam="1">  1       -1 0.29987902E+00 0.62763527E+01</pdfrwt>
<totfact> 0.32844289E-02</totfact>
</mgrwt>
</event>
<event>
 4    1  0.4231559E-004  0.6616531E+01  0.7818608E-02  0.2341482E+00
          1   -1    0    0  501    0  0.00000000000E+00  0.00000000000E+00  0.51907615843E+02  0.51907616088E+02  0.50400000000E-02 0. -1.
         -1   -1    0    0    0  501 -0.00000000000E+00 -0.00000000000E+00 -0.21081768584E+00  0.21087792265E+00  0.50400000000E-02 0.  1.
         31    1    1    2    0    0  0.98439139616E-01  0.69054712128E+00  0.13479799232E+02  0.13790722715E+02  0.28271010000E+01 0.  1.
        -31    1    1    2    0    0 -0.98439139616E-01 -0.69054712128E+00  0.38216998925E+02  0.38327771295E+02  0.28271010000E+01 0. -1.
<mgrwt>
<rscale>  0 0.66165307E+01</rscale>
<asrwt>0</asrwt>
<pdfrwt beam="1">  1        1 0.43095217E+00 0.66165307E+01</pdfrwt>
<pdfrwt beam="2">  1       -1 0.44775039E+00 0.66165307E+01</pdfrwt>
<totfact> 0.17794614E-02</totfact>
</mgrwt>
</event>
<event>
 4    1  0.4231559E-004  0.6143674E+01  0.7818608E-02  0.2397091E+00
         -1   -1    0    0    0  501 -0.00000000000E+00  0.00000000000E+00  0.97222892156E+02  0.97222892287E+02  0.50400000000E-02 0.  1.
          1   -1    0    0  501    0  0.00000000000E+00 -0.00000000000E+00 -0.96991639875E-01  0.97122498968E-01  0.50400000000E-02 0. -1.
         31    1    1    2    0    0 -0.46210953922E+00  0.10515658437E+01  0.54148801750E+02  0.54234717359E+02  0.28271010000E+01 0.  1.
        -31    1    1    2    0    0  0.46210953922E+00 -0.10515658437E+01  0.42977098766E+02  0.43085297427E+02  0.28271010000E+01 0.  1.
<mgrwt>
<rscale>  0 0.61436737E+01</rscale>
<asrwt>0</asrwt>
<pdfrwt beam="2">  1        1 0.20673846E+00 0.61436737E+01</pdfrwt>
<pdfrwt beam="1">  1       -1 0.80470997E+00 0.61436737E+01</pdfrwt>
<totfact> 0.40634314E-03</totfact>
</mgrwt>
</event>
<event>
 4    1  0.4231559E-004  0.5793172E+01  0.7818608E-02  0.2443146E+00
          1   -1    0    0  501    0  0.00000000000E+00  0.00000000000E+00  0.93214578477E+02  0.93214578614E+02  0.50400000000E-02 0. -1.
         -1   -1    0    0    0  501 -0.00000000000E+00 -0.00000000000E+00 -0.89938937538E-01  0.90080042659E-01  0.50400000000E-02 0.  1.
         31    1    1    2    0    0  0.59777643969E-01 -0.21350728802E+00  0.37053648229E+02  0.37162003523E+02  0.28271010000E+01 0.  1.
        -31    1    1    2    0    0 -0.59777643969E-01  0.21350728802E+00  0.56070991311E+02  0.56142655133E+02  0.28271010000E+01 0. -1.
<mgrwt>
<rscale>  0 0.57931716E+01</rscale>
<asrwt>0</asrwt>
<pdfrwt beam="1">  1        1 0.77150820E+00 0.57931716E+01</pdfrwt>
<pdfrwt beam="2">  1       -1 0.19173289E+00 0.57931716E+01</pdfrwt>
<totfact> 0.12276177E-02</totfact>
</mgrwt>
</event>
<event>
 4    1  0.4231559E-004  0.6615221E+01  0.7818608E-02  0.2341627E+00
         -1   -1    0    0    0  501 -0.00000000000E+00  0.00000000000E+00  0.53783705724E+02  0.53783705960E+02  0.50400000000E-02 0.  1.
          1   -1    0    0  501    0  0.00000000000E+00 -0.00000000000E+00 -0.20338119929E+00  0.20344363796E+00  0.50400000000E-02 0. -1.
         31    1    1    2    0    0 -0.15786332211E+01 -0.46590634463E+00  0.30776856288E+02  0.30950226730E+02  0.28271010000E+01 0.  1.
        -31    1    1    2    0    0  0.15786332211E+01  0.46590634463E+00  0.22803468236E+02  0.23036922868E+02  0.28271010000E+01 0. -1.
<mgrwt>
<rscale>  0 0.66152207E+01</rscale>
<asrwt>0</asrwt>
<pdfrwt beam="2">  1        1 0.43208128E+00 0.66152207E+01</pdfrwt>
<pdfrwt beam="1">  1       -1 0.44640353E+00 0.66152207E+01</pdfrwt>
<totfact> 0.17974172E-02</totfact>
</mgrwt>
</event>
<event>
 4    1  0.4231559E-004  0.7004182E+01  0.7818608E-02  0.2300572E+00
         -1   -1    0    0    0  501 -0.00000000000E+00  0.00000000000E+00  0.61336172973E+02  0.61336173180E+02  0.50400000000E-02 0.  1.
          1   -1    0    0  501    0  0.00000000000E+00 -0.00000000000E+00 -0.19992578191E+00  0.19998929939E+00  0.50400000000E-02 0. -1.
         31    1    1    2    0    0 -0.63158089167E+00  0.19031837848E+01  0.26165303737E+02  0.26393874719E+02  0.28271010000E+01 0.  1.
        -31    1    1    2    0    0  0.63158089167E+00 -0.19031837848E+01  0.34970943454E+02  0.35142287761E+02  0.28271010000E+01 0.  1.
<mgrwt>
<rscale>  0 0.70041825E+01</rscale>
<asrwt>0</asrwt>
<pdfrwt beam="2">  1        1 0.42496353E+00 0.70041825E+01</pdfrwt>
<pdfrwt beam="1">  1       -1 0.50882405E+00 0.70041825E+01</pdfrwt>
<totfact> 0.72010963E-03</totfact>
</mgrwt>
</event>
<event>
 4    1  0.4231559E-004  0.5913191E+01  0.7818608E-02  0.2426861E+00
         -1   -1    0    0    0  501 -0.00000000000E+00  0.00000000000E+00  0.97608582989E+02  0.97608583119E+02  0.50400000000E-02 0. -1.
          1   -1    0    0  501    0  0.00000000000E+00 -0.00000000000E+00 -0.89485192345E-01  0.89627011827E-01  0.50400000000E-02 0.  1.
         31    1    1    2    0    0  0.40633094761E+00  0.60386774504E+00  0.41024184316E+02  0.41127921902E+02  0.28271010000E+01 0.  1.
        -31    1    1    2    0    0 -0.40633094761E+00 -0.60386774504E+00  0.56494913481E+02  0.56570288229E+02  0.28271010000E+01 0. -1.
<mgrwt>
<rscale>  0 0.59131910E+01</rscale>
<asrwt>0</asrwt>
<pdfrwt beam="2">  1        1 0.19077628E+00 0.59131910E+01</pdfrwt>
<pdfrwt beam="1">  1       -1 0.80783716E+00 0.59131910E+01</pdfrwt>
<totfact> 0.46129778E-03</totfact>
</mgrwt>
</event>
<event>
 4    1  0.4231559E-004  0.8038787E+01  0.7818608E-02  0.2207479E+00
          1   -1    0    0  501    0  0.00000000000E+00  0.00000000000E+00  0.49740460017E+02  0.49740460273E+02  0.50400000000E-02 0.  1.
         -1   -1    0    0    0  501 -0.00000000000E+00 -0.00000000000E+00 -0.32477662384E+00  0.32481572775E+00  0.50400000000E-02 0. -1.
         31    1    1    2    0    0 -0.15730761440E+01 -0.46810219562E+00  0.39272938785E+02  0.39408754219E+02  0.28271010000E+01 0. -1.
        -31    1    1    2    0    0  0.15730761440E+01  0.46810219562E+00  0.10142744608E+02  0.10656521781E+02  0.28271010000E+01 0. -1.
<mgrwt>
<rscale>  0 0.80387870E+01</rscale>
<asrwt>0</asrwt>
<pdfrwt beam="1">  1        1 0.41397473E+00 0.80387870E+01</pdfrwt>
<pdfrwt beam="2">  1       -1 0.68803668E+00 0.80387870E+01</pdfrwt>
<totfact> 0.12155418E-03</totfact>
</mgrwt>
</event>
<event>
 4    1  0.4231559E-004  0.5785399E+01  0.7818608E-02  0.2444220E+00
          1   -1    0    0  501    0  0.00000000000E+00  0.00000000000E+00  0.68395268250E+02  0.68395268436E+02  0.50400000000E-02 0. -1.
         -1   -1    0    0    0  501 -0.00000000000E+00 -0.00000000000E+00 -0.12229132414E+00  0.12239513699E+00  0.50400000000E-02 0.  1.
         31    1    1    2    0    0  0.60375099416E+00 -0.53109968317E-01  0.35187454522E+02  0.35306044692E+02  0.28271010000E+01 0.  1.
        -31    1    1    2    0    0 -0.60375099416E+00  0.53109968317E-01  0.33085522403E+02  0.33211618881E+02  0.28271010000E+01 0.  1.
<mgrwt>
<rscale>  0 0.57853991E+01</rscale>
<asrwt>0</asrwt>
<pdfrwt beam="1">  1        1 0.56655198E+00 0.57853991E+01</pdfrwt>
<pdfrwt beam="2">  1       -1 0.26039418E+00 0.57853991E+01</pdfrwt>
<totfact> 0.63986925E-02</totfact>
</mgrwt>
</event>
<event>
 4    1  0.4231559E-004  0.6781050E+01  0.7818608E-02  0.2323650E+00
         -1   -1    0    0    0  501 -0.00000000000E+00  0.00000000000E+00  0.36920494443E+02  0.36920494787E+02  0.50400000000E-02 0. -1.
          1   -1    0    0  501    0  0.00000000000E+00 -0.00000000000E+00 -0.31134184322E+00  0.31138263429E+00  0.50400000000E-02 0.  1.
         31    1    1    2    0    0 -0.13059153790E+01 -0.72854650207E+00  0.12124407013E+02  0.12539136353E+02  0.28271010000E+01 0.  1.
        -31    1    1    2    0    0  0.13059153790E+01  0.72854650207E+00  0.24484745587E+02  0.24692741069E+02  0.28271010000E+01 0. -1.
<mgrwt>
<rscale>  0 0.67810502E+01</rscale>
<asrwt>0</asrwt>
<pdfrwt beam="2">  1        1 0.65833380E+00 0.67810502E+01</pdfrwt>
<pdfrwt beam="1">  1       -1 0.30785921E+00 0.67810502E+01</pdfrwt>
<totfact> 0.11766831E-02</totfact>
</mgrwt>
</event>
<event>
 4    1  0.4231559E-004  0.5830924E+01  0.7818608E-02  0.2437962E+00
         -1   -1    0    0    0  501 -0.00000000000E+00  0.00000000000E+00  0.37297050411E+02  0.37297050752E+02  0.50400000000E-02 0. -1.
          1   -1    0    0  501    0  0.00000000000E+00 -0.00000000000E+00 -0.22786966591E+00  0.22792539622E+00  0.50400000000E-02 0.  1.
         31    1    1    2    0    0 -0.30373864931E+00  0.64368022730E+00  0.18348407355E+02  0.18578566520E+02  0.28271010000E+01 0. -1.
        -31    1    1    2    0    0  0.30373864931E+00 -0.64368022730E+00  0.18720773390E+02  0.18946409628E+02  0.28271010000E+01 0. -1.
<mgrwt>
<rscale>  0 0.58309239E+01</rscale>
<asrwt>0</asrwt>
<pdfrwt beam="2">  1        1 0.48297149E+00 0.58309239E+01</pdfrwt>
<pdfrwt beam="1">  1       -1 0.31028276E+00 0.58309239E+01</pdfrwt>
<totfact> 0.76237015E-02</totfact>
</mgrwt>
</event>
<event>
 4    1  0.4231559E-004  0.6443048E+01  0.7818608E-02  0.2361096E+00
          1   -1    0    0  501    0  0.00000000000E+00  0.00000000000E+00  0.45632404206E+02  0.45632404485E+02  0.50400000000E-02 0. -1.
         -1   -1    0    0    0  501 -0.00000000000E+00 -0.00000000000E+00 -0.22740262324E+00  0.22745846798E+00  0.50400000000E-02 0.  1.
         31    1    1    2    0    0 -0.89704400337E-01  0.79713682649E+00  0.13307527169E+02  0.13628141965E+02  0.28271010000E+01 0.  1.
        -31    1    1    2    0    0  0.89704400337E-01 -0.79713682649E+00  0.32097474414E+02  0.32231720987E+02  0.28271010000E+01 0. -1.
<mgrwt>
<rscale>  0 0.64430475E+01</rscale>
<asrwt>0</asrwt>
<pdfrwt beam="1">  1        1 0.37920143E+00 0.64430475E+01</pdfrwt>
<pdfrwt beam="2">  1       -1 0.48252196E+00 0.64430475E+01</pdfrwt>
<totfact> 0.16693296E-02</totfact>
</mgrwt>
</event>
<event>
 4    1  0.4231559E-004  0.7809903E+01  0.7818608E-02  0.2226343E+00
          1   -1    0    0  501    0  0.00000000000E+00  0.00000000000E+00  0.84873771240E+02  0.84873771390E+02  0.50400000000E-02 0.  1.
         -1   -1    0    0    0  501 -0.00000000000E+00 -0.00000000000E+00 -0.17962712794E+00  0.17969782050E+00  0.50400000000E-02 0. -1.
         31    1    1    2    0    0  0.22112574817E+01 -0.78754753649E+00  0.27955770388E+02  0.28196231820E+02  0.28271010000E+01 0. -1.
        -31    1    1    2    0    0 -0.22112574817E+01  0.78754753649E+00  0.56738373724E+02  0.56857237391E+02  0.28271010000E+01 0.  1.
<mgrwt>
<rscale>  0 0.78099025E+01</rscale>
<asrwt>0</asrwt>
<pdfrwt beam="1">  1        1 0.70328159E+00 0.78099025E+01</pdfrwt>
<pdfrwt beam="2">  1       -1 0.38226661E+00 0.78099025E+01</pdfrwt>
<totfact> 0.23166355E-03</totfact>
</mgrwt>
</event>
<event>
 4    1  0.4231559E-004  0.7588484E+01  0.7818608E-02  0.2245461E+00
          1   -1    0    0  501    0  0.00000000000E+00  0.00000000000E+00  0.84470412714E+02  0.84470412865E+02  0.50400000000E-02 0. -1.
         -1   -1    0    0    0  501 -0.00000000000E+00 -0.00000000000E+00 -0.17039233787E+00  0.17046686014E+00  0.50400000000E-02 0.  1.
         31    1    1    2    0    0 -0.17165060590E+01  0.18342232561E+01  0.45551538864E+02  0.45708270160E+02  0.28271010000E+01 0. -1.
        -31    1    1    2    0    0  0.17165060590E+01 -0.18342232561E+01  0.38748481512E+02  0.38932609565E+02  0.28271010000E+01 0.  1.
<mgrwt>
<rscale>  0 0.75884837E+01</rscale>
<asrwt>0</asrwt>
<pdfrwt beam="1">  1        1 0.69987001E+00 0.75884837E+01</pdfrwt>
<pdfrwt beam="2">  1       -1 0.36265779E+00 0.75884837E+01</pdfrwt>
<totfact> 0.32149720E-03</totfact>
</mgrwt>
</event>
<event>
 4    1  0.4231559E-004  0.6609096E+01  0.7818608E-02  0.2342305E+00
         -1   -1    0    0    0  501 -0.00000000000E+00  0.00000000000E+00  0.83689661078E+02  0.83689661230E+02  0.50400000000E-02 0. -1.
          1   -1    0    0  501    0  0.00000000000E+00 -0.00000000000E+00 -0.13043369830E+00  0.13053103559E+00  0.50400000000E-02 0.  1.
         31    1    1    2    0    0 -0.88343082748E+00  0.61671208565E+00  0.58637169830E+02  0.58715168139E+02  0.28271010000E+01 0. -1.
        -31    1    1    2    0    0  0.88343082748E+00 -0.61671208565E+00  0.24922057550E+02  0.25105024127E+02  0.28271010000E+01 0. -1.
<mgrwt>
<rscale>  0 0.66090961E+01</rscale>
<asrwt>0</asrwt>
<pdfrwt beam="2">  1        1 0.27778107E+00 0.66090961E+01</pdfrwt>
<pdfrwt beam="1">  1       -1 0.69308400E+00 0.66090961E+01</pdfrwt>
<totfact> 0.40904676E-03</totfact>
</mgrwt>
</event>
<event>
 4    1  0.4231559E-004  0.5679242E+01  0.7818608E-02  0.2459139E+00
         -1   -1    0    0    0  501 -0.00000000000E+00  0.00000000000E+00  0.33644637770E+02  0.33644638148E+02  0.50400000000E-02 0. -1.
          1   -1    0    0  501    0  0.00000000000E+00 -0.00000000000E+00 -0.23963825934E+00  0.23969125336E+00  0.50400000000E-02 0.  1.
         31    1    1    2    0    0 -0.24997137694E+00  0.46561585848E-01  0.16229201591E+02  0.16475561842E+02  0.28271010000E+01 0. -1.
        -31    1    1    2    0    0  0.24997137694E+00 -0.46561585848E-01  0.17175797920E+02  0.17408767559E+02  0.28271010000E+01 0.  1.
<mgrwt>
<rscale>  0 0.56792417E+01</rscale>
<asrwt>0</asrwt>
<pdfrwt beam="2">  1        1 0.50739827E+00 0.56792417E+01</pdfrwt>
<pdfrwt beam="1">  1       -1 0.28017934E+00 0.56792417E+01</pdfrwt>
<totfact> 0.89747400E-02</totfact>
</mgrwt>
</event>
<event>
 4    1  0.4231559E-004  0.5967256E+01  0.7818608E-02  0.2419705E+00
          1   -1    0    0  501    0  0.00000000000E+00  0.00000000000E+00  0.42310567237E+02  0.42310567537E+02  0.50400000000E-02 0. -1.
         -1   -1    0    0    0  501 -0.00000000000E+00 -0.00000000000E+00 -0.21036699362E+00  0.21042735945E+00  0.50400000000E-02 0.  1.
         31    1    1    2    0    0 -0.42175847666E+00  0.73419248249E+00  0.24177452893E+02  0.24356901430E+02  0.28271010000E+01 0.  1.
        -31    1    1    2    0    0  0.42175847666E+00 -0.73419248249E+00  0.17922747350E+02  0.18164093467E+02  0.28271010000E+01 0.  1.
<mgrwt>
<rscale>  0 0.59672562E+01</rscale>
<asrwt>0</asrwt>
<pdfrwt beam="1">  1        1 0.35159334E+00 0.59672562E+01</pdfrwt>
<pdfrwt beam="2">  1       -1 0.44638862E+00 0.59672562E+01</pdfrwt>
<totfact> 0.37584851E-02</totfact>
</mgrwt>
</event>
<event>
 4    1  0.4231559E-004  0.6243385E+01  0.7818608E-02  0.2384784E+00
         -1   -1    0    0    0  501 -0.00000000000E+00  0.00000000000E+00  0.34795572757E+02  0.34795573122E+02  0.50400000000E-02 0. -1.
          1   -1    0    0  501    0  0.00000000000E+00 -0.00000000000E+00 -0.28004030909E+00  0.28008565889E+00  0.50400000000E-02 0.  1.
         31    1    1    2    0    0 -0.97870637059E+00  0.81168188364E+00  0.15187676412E+02  0.15500797028E+02  0.28271010000E+01 0.  1.
        -31    1    1    2    0    0  0.97870637059E+00 -0.81168188364E+00  0.19327856036E+02  0.19574861753E+02  0.28271010000E+01 0.  1.
<mgrwt>
<rscale>  0 0.62433852E+01</rscale>
<asrwt>0</asrwt>
<pdfrwt beam="2">  1        1 0.59238164E+00 0.62433852E+01</pdfrwt>
<pdfrwt beam="1">  1       -1 0.29003009E+00 0.62433852E+01</pdfrwt>
<totfact> 0.32393735E-02</totfact>
</mgrwt>
</event>
<event>
 4    1  0.4231559E-004  0.9120745E+01  0.7818608E-02  0.2128776E+00
          1   -1    0    0  501    0  0.00000000000E+00  0.00000000000E+00  0.69010201633E+02  0.69010201817E+02  0.50400000000E-02 0. -1.
         -1   -1    0    0    0  501 -0.00000000000E+00 -0.00000000000E+00 -0.30133995205E+00  0.30138209685E+00  0.50400000000E-02 0.  1.
         31    1    1    2    0    0  0.19958027115E+01 -0.10750569045E+01  0.55394461570E+02  0.55512862010E+02  0.28271010000E+01 0. -1.
        -31    1    1    2    0    0 -0.19958027115E+01  0.10750569045E+01  0.13314400111E+02  0.13798721904E+02  0.28271010000E+01 0.  1.
<mgrwt>
<rscale>  0 0.91207451E+01</rscale>
<asrwt>0</asrwt>
<pdfrwt beam="1">  1        1 0.57311667E+00 0.91207451E+01</pdfrwt>
<pdfrwt beam="2">  1       -1 0.63976721E+00 0.91207451E+01</pdfrwt>
<totfact> 0.31774930E-04</totfact>
</mgrwt>
</event>
<event>
 4    1  0.4231559E-004  0.6067751E+01  0.7818608E-02  0.2406688E+00
         -1   -1    0    0    0  501 -0.00000000000E+00  0.00000000000E+00  0.84281685084E+02  0.84281685235E+02  0.50400000000E-02 0.  1.
          1   -1    0    0  501    0  0.00000000000E+00 -0.00000000000E+00 -0.10915167698E+00  0.10926797421E+00  0.50400000000E-02 0. -1.
         31    1    1    2    0    0  0.99623520654E+00 -0.33305167629E+00  0.37505179804E+02  0.37626246427E+02  0.28271010000E+01 0. -1.
        -31    1    1    2    0    0 -0.99623520654E+00  0.33305167629E+00  0.46667353603E+02  0.46764706782E+02  0.28271010000E+01 0.  1.
<mgrwt>
<rscale>  0 0.60677511E+01</rscale>
<asrwt>0</asrwt>
<pdfrwt beam="2">  1        1 0.23255559E+00 0.60677511E+01</pdfrwt>
<pdfrwt beam="1">  1       -1 0.69780345E+00 0.60677511E+01</pdfrwt>
<totfact> 0.60123980E-03</totfact>
</mgrwt>
</event>
<event>
 4    1  0.4231559E-004  0.7316471E+01  0.7818608E-02  0.2270224E+00
          1   -1    0    0  501    0  0.00000000000E+00  0.00000000000E+00  0.76652716779E+02  0.76652716945E+02  0.50400000000E-02 0. -1.
         -1   -1    0    0    0  501 -0.00000000000E+00 -0.00000000000E+00 -0.17455201892E+00  0.17462476602E+00  0.50400000000E-02 0.  1.
         31    1    1    2    0    0 -0.44676060298E+00  0.15317199591E+01  0.20529371172E+02  0.20784449520E+02  0.28271010000E+01 0.  1.
        -31    1    1    2    0    0  0.44676060298E+00 -0.15317199591E+01  0.55948793588E+02  0.56042892190E+02  0.28271010000E+01 0. -1.
<mgrwt>
<rscale>  0 0.73164711E+01</rscale>
<asrwt>0</asrwt>
<pdfrwt beam="1">  1        1 0.63526221E+00 0.73164711E+01</pdfrwt>
<pdfrwt beam="2">  1       -1 0.37141093E+00 0.73164711E+01</pdfrwt>
<totfact> 0.64746753E-03</totfact>
</mgrwt>
</event>
<event>
 4    1  0.4231559E-004  0.6011666E+01  0.7818608E-02  0.2413908E+00
          1   -1    0    0  501    0  0.00000000000E+00  0.00000000000E+00  0.42271503219E+02  0.42271503519E+02  0.50400000000E-02 0.  1.
         -1   -1    0    0    0  501 -0.00000000000E+00 -0.00000000000E+00 -0.21370810862E+00  0.21376753095E+00  0.50400000000E-02 0. -1.
         31    1    1    2    0    0 -0.63148436032E+00 -0.80045789970E+00  0.20640124081E+02  0.20857773791E+02  0.28271010000E+01 0.  1.
        -31    1    1    2    0    0  0.63148436032E+00  0.80045789970E+00  0.21417671029E+02  0.21627497260E+02  0.28271010000E+01 0.  1.
<mgrwt>
<rscale>  0 0.60116659E+01</rscale>
<asrwt>0</asrwt>
<pdfrwt beam="1">  1        1 0.35129795E+00 0.60116659E+01</pdfrwt>
<pdfrwt beam="2">  1       -1 0.45343855E+00 0.60116659E+01</pdfrwt>
<totfact> 0.33828617E-02</totfact>
</mgrwt>
</event>
<event>
 4    1  0.4231559E-004  0.6271313E+01  0.7818608E-02  0.2381395E+00
          1   -1    0    0  501    0  0.00000000000E+00  0.00000000000E+00  0.40983664871E+02  0.40983665181E+02  0.50400000000E-02 0.  1.
         -1   -1    0    0    0  501 -0.00000000000E+00 -0.00000000000E+00 -0.23988199313E+00  0.23993493332E+00  0.50400000000E-02 0. -1.
         31    1    1    2    0    0  0.11949799344E+00  0.92741476341E+00  0.26830741988E+02  0.26995473576E+02  0.28271010000E+01 0.  1.
        -31    1    1    2    0    0 -0.11949799344E+00 -0.92741476341E+00  0.13913040890E+02  0.14228126538E+02  0.28271010000E+01 0. -1.
<mgrwt>
<rscale>  0 0.62713127E+01</rscale>
<asrwt>0</asrwt>
<pdfrwt beam="1">  1        1 0.34086557E+00 0.62713127E+01</pdfrwt>
<pdfrwt beam="2">  1       -1 0.50855528E+00 0.62713127E+01</pdfrwt>
<totfact> 0.15619712E-02</totfact>
</mgrwt>
</event>
<event>
 4    1  0.4231559E-004  0.6287225E+01  0.7818608E-02  0.2379476E+00
          1   -1    0    0  501    0  0.00000000000E+00  0.00000000000E+00  0.69484933648E+02  0.69484933831E+02  0.50400000000E-02 0.  1.
         -1   -1    0    0    0  501 -0.00000000000E+00 -0.00000000000E+00 -0.14217735161E+00  0.14226665425E+00  0.50400000000E-02 0. -1.
         31    1    1    2    0    0 -0.11618993686E+00 -0.73472881934E+00  0.47474030746E+02  0.47563950865E+02  0.28271010000E+01 0.  1.
        -31    1    1    2    0    0  0.11618993686E+00  0.73472881934E+00  0.21868725550E+02  0.22063249620E+02  0.28271010000E+01 0. -1.
<mgrwt>
<rscale>  0 0.62872249E+01</rscale>
<asrwt>0</asrwt>
<pdfrwt beam="1">  1        1 0.57572641E+00 0.62872249E+01</pdfrwt>
<pdfrwt beam="2">  1       -1 0.30262599E+00 0.62872249E+01</pdfrwt>
<totfact> 0.32789824E-02</totfact>
</mgrwt>
</event>
<event>
 4    1  0.4231559E-004  0.5715995E+01  0.7818608E-02  0.2453921E+00
         -1   -1    0    0    0  501 -0.00000000000E+00  0.00000000000E+00  0.38425462205E+02  0.38425462536E+02  0.50400000000E-02 0.  1.
          1   -1    0    0  501    0  0.00000000000E+00 -0.00000000000E+00 -0.21254109021E+00  0.21260083873E+00  0.50400000000E-02 0. -1.
         31    1    1    2    0    0 -0.29480206762E+00 -0.29733135426E+00  0.19230374110E+02  0.19441581794E+02  0.28271010000E+01 0. -1.
        -31    1    1    2    0    0  0.29480206762E+00  0.29733135426E+00  0.18982547005E+02  0.19196481580E+02  0.28271010000E+01 0. -1.
<mgrwt>
<rscale>  0 0.57159952E+01</rscale>
<asrwt>0</asrwt>
<pdfrwt beam="2">  1        1 0.45074978E+00 0.57159952E+01</pdfrwt>
<pdfrwt beam="1">  1       -1 0.31948654E+00 0.57159952E+01</pdfrwt>
<totfact> 0.91651732E-02</totfact>
</mgrwt>
</event>
<event>
 4    1  0.4231559E-004  0.5804896E+01  0.7818608E-02  0.2441530E+00
         -1   -1    0    0    0  501 -0.00000000000E+00  0.00000000000E+00  0.82598917579E+02  0.82598917733E+02  0.50400000000E-02 0.  1.
          1   -1    0    0  501    0  0.00000000000E+00 -0.00000000000E+00 -0.10192685583E+00  0.10205138676E+00  0.50400000000E-02 0. -1.
         31    1    1    2    0    0  0.80443220586E-01 -0.45074546274E+00  0.34534942685E+02  0.34653490574E+02  0.28271010000E+01 0. -1.
        -31    1    1    2    0    0 -0.80443220586E-01  0.45074546274E+00  0.47962048038E+02  0.48047478546E+02  0.28271010000E+01 0. -1.
<mgrwt>
<rscale>  0 0.58048958E+01</rscale>
<asrwt>0</asrwt>
<pdfrwt beam="2">  1        1 0.21719280E+00 0.58048958E+01</pdfrwt>
<pdfrwt beam="1">  1       -1 0.68382948E+00 0.58048958E+01</pdfrwt>
<totfact> 0.73149170E-03</totfact>
</mgrwt>
</event>
<event>
 4    1  0.4231559E-004  0.6040791E+01  0.7818608E-02  0.2410145E+00
         -1   -1    0    0    0  501 -0.00000000000E+00  0.00000000000E+00  0.25432669082E+02  0.25432669581E+02  0.50400000000E-02 0. -1.
          1   -1    0    0  501    0  0.00000000000E+00 -0.00000000000E+00 -0.35868536451E+00  0.35872077207E+00  0.50400000000E-02 0.  1.
         31    1    1    2    0    0 -0.84654382042E+00 -0.26155509654E+00  0.15045656055E+02  0.15334579020E+02  0.28271010000E+01 0. -1.
        -31    1    1    2    0    0  0.84654382042E+00  0.26155509654E+00  0.10028327662E+02  0.10456811334E+02  0.28271010000E+01 0. -1.
<mgrwt>
<rscale>  0 0.60407911E+01</rscale>
<asrwt>0</asrwt>
<pdfrwt beam="2">  1        1 0.75418874E+00 0.60407911E+01</pdfrwt>
<pdfrwt beam="1">  1       -1 0.21326126E+00 0.60407911E+01</pdfrwt>
<totfact> 0.11708218E-02</totfact>
</mgrwt>
</event>
<event>
 4    1  0.4231559E-004  0.6833957E+01  0.7818608E-02  0.2318066E+00
          1   -1    0    0  501    0  0.00000000000E+00  0.00000000000E+00  0.53907697693E+02  0.53907697928E+02  0.50400000000E-02 0.  1.
         -1   -1    0    0    0  501 -0.00000000000E+00 -0.00000000000E+00 -0.21655811194E+00  0.21661675246E+00  0.50400000000E-02 0. -1.
         31    1    1    2    0    0  0.16361843551E+01  0.81937366285E+00  0.22263164999E+02  0.22516427076E+02  0.28271010000E+01 0. -1.
        -31    1    1    2    0    0 -0.16361843551E+01 -0.81937366285E+00  0.31427974582E+02  0.31607887605E+02  0.28271010000E+01 0.  1.
<mgrwt>
<rscale>  0 0.68339571E+01</rscale>
<asrwt>0</asrwt>
<pdfrwt beam="1">  1        1 0.44753770E+00 0.68339571E+01</pdfrwt>
<pdfrwt beam="2">  1       -1 0.45995914E+00 0.68339571E+01</pdfrwt>
<totfact> 0.12591641E-02</totfact>
</mgrwt>
</event>
<event>
 4    1  0.4231559E-004  0.6164535E+01  0.7818608E-02  0.2394489E+00
         -1   -1    0    0    0  501 -0.00000000000E+00  0.00000000000E+00  0.39666539631E+02  0.39666539951E+02  0.50400000000E-02 0.  1.
          1   -1    0    0  501    0  0.00000000000E+00 -0.00000000000E+00 -0.23947912081E+00  0.23953215005E+00  0.50400000000E-02 0. -1.
         31    1    1    2    0    0  0.10695586307E+01  0.20392513539E+00  0.23388806009E+02  0.23584195719E+02  0.28271010000E+01 0.  1.
        -31    1    1    2    0    0 -0.10695586307E+01 -0.20392513539E+00  0.16038254502E+02  0.16321876383E+02  0.28271010000E+01 0. -1.
<mgrwt>
<rscale>  0 0.61645349E+01</rscale>
<asrwt>0</asrwt>
<pdfrwt beam="2">  1        1 0.50760841E+00 0.61645349E+01</pdfrwt>
<pdfrwt beam="1">  1       -1 0.32997132E+00 0.61645349E+01</pdfrwt>
<totfact> 0.45934679E-02</totfact>
</mgrwt>
</event>
<event>
 4    1  0.4231559E-004  0.5979647E+01  0.7818608E-02  0.2418080E+00
         -1   -1    0    0    0  501 -0.00000000000E+00  0.00000000000E+00  0.38530450123E+02  0.38530450453E+02  0.50400000000E-02 0.  1.
          1   -1    0    0  501    0  0.00000000000E+00 -0.00000000000E+00 -0.23197181512E+00  0.23202656014E+00  0.50400000000E-02 0. -1.
         31    1    1    2    0    0 -0.42266156606E+00 -0.87444390781E+00  0.18779636780E+02  0.19016060386E+02  0.28271010000E+01 0. -1.
        -31    1    1    2    0    0  0.42266156606E+00  0.87444390781E+00  0.19518841528E+02  0.19746416627E+02  0.28271010000E+01 0. -1.
<mgrwt>
<rscale>  0 0.59796474E+01</rscale>
<asrwt>0</asrwt>
<pdfrwt beam="2">  1        1 0.49170746E+00 0.59796474E+01</pdfrwt>
<pdfrwt beam="1">  1       -1 0.32051528E+00 0.59796474E+01</pdfrwt>
<totfact> 0.61054186E-02</totfact>
</mgrwt>
</event>
<event>
 4    1  0.4231559E-004  0.6660170E+01  0.7818608E-02  0.2336681E+00
         -1   -1    0    0    0  501 -0.00000000000E+00  0.00000000000E+00  0.45540366438E+02  0.45540366717E+02  0.50400000000E-02 0. -1.
          1   -1    0    0  501    0  0.00000000000E+00 -0.00000000000E+00 -0.24348212926E+00  0.24353428684E+00  0.50400000000E-02 0.  1.
         31    1    1    2    0    0  0.15589222842E+01  0.67085193896E+00  0.19448503937E+02  0.19726050960E+02  0.28271010000E+01 0.  1.
        -31    1    1    2    0    0 -0.15589222842E+01 -0.67085193896E+00  0.25848380372E+02  0.26057850044E+02  0.28271010000E+01 0. -1.
<mgrwt>
<rscale>  0 0.66601699E+01</rscale>
<asrwt>0</asrwt>
<pdfrwt beam="2">  1        1 0.51644608E+00 0.66601699E+01</pdfrwt>
<pdfrwt beam="1">  1       -1 0.37857333E+00 0.66601699E+01</pdfrwt>
<totfact> 0.21469385E-02</totfact>
</mgrwt>
</event>
<event>
 4    1  0.4231559E-004  0.7047039E+01  0.7818608E-02  0.2296278E+00
          1   -1    0    0  501    0  0.00000000000E+00  0.00000000000E+00  0.72429991900E+02  0.72429992076E+02  0.50400000000E-02 0.  1.
         -1   -1    0    0    0  501 -0.00000000000E+00 -0.00000000000E+00 -0.17137229669E+00  0.17144639300E+00  0.50400000000E-02 0. -1.
         31    1    1    2    0    0  0.16640678101E+01  0.11398341816E+01  0.42262022199E+02  0.42404473397E+02  0.28271010000E+01 0.  1.
        -31    1    1    2    0    0 -0.16640678101E+01 -0.11398341816E+01  0.29996597404E+02  0.30196965072E+02  0.28271010000E+01 0. -1.
<mgrwt>
<rscale>  0 0.70470391E+01</rscale>
<asrwt>0</asrwt>
<pdfrwt beam="1">  1        1 0.60031949E+00 0.70470391E+01</pdfrwt>
<pdfrwt beam="2">  1       -1 0.36461565E+00 0.70470391E+01</pdfrwt>
<totfact> 0.10694034E-02</totfact>
</mgrwt>
</event>
<event>
 4    1  0.4231559E-004  0.6866207E+01  0.7818608E-02  0.2314697E+00
         -1   -1    0    0    0  501 -0.00000000000E+00  0.00000000000E+00  0.85661310803E+02  0.85661310951E+02  0.50400000000E-02 0. -1.
          1   -1    0    0  501    0  0.00000000000E+00 -0.00000000000E+00 -0.13754441048E+00  0.13763671913E+00  0.50400000000E-02 0.  1.
         31    1    1    2    0    0 -0.15836484704E+01  0.63569473697E+00  0.31028769550E+02  0.31203991573E+02  0.28271010000E+01 0.  1.
        -31    1    1    2    0    0  0.15836484704E+01 -0.63569473697E+00  0.54494996843E+02  0.54594956097E+02  0.28271010000E+01 0. -1.
<mgrwt>
<rscale>  0 0.68662074E+01</rscale>
<asrwt>0</asrwt>
<pdfrwt beam="2">  1        1 0.29289977E+00 0.68662074E+01</pdfrwt>
<pdfrwt beam="1">  1       -1 0.70944573E+00 0.68662074E+01</pdfrwt>
<totfact> 0.33362718E-03</totfact>
</mgrwt>
</event>
<event>
 4    1  0.4231559E-004  0.6244556E+01  0.7818608E-02  0.2384641E+00
         -1   -1    0    0    0  501 -0.00000000000E+00  0.00000000000E+00  0.48892812682E+02  0.48892812941E+02  0.50400000000E-02 0.  1.
          1   -1    0    0  501    0  0.00000000000E+00 -0.00000000000E+00 -0.19935547264E+00  0.19941917178E+00  0.50400000000E-02 0. -1.
         31    1    1    2    0    0  0.32712021328E+00 -0.12662657349E+01  0.26027037257E+02  0.26212775606E+02  0.28271010000E+01 0. -1.
        -31    1    1    2    0    0 -0.32712021328E+00  0.12662657349E+01  0.22666419952E+02  0.22879456507E+02  0.28271010000E+01 0.  1.
<mgrwt>
<rscale>  0 0.62445559E+01</rscale>
<asrwt>0</asrwt>
<pdfrwt beam="2">  1        1 0.42340649E+00 0.62445559E+01</pdfrwt>
<pdfrwt beam="1">  1       -1 0.40592892E+00 0.62445559E+01</pdfrwt>
<totfact> 0.35714138E-02</totfact>
</mgrwt>
</event>
<event>
 4    1  0.4231559E-004  0.6025973E+01  0.7818608E-02  0.2412055E+00
          1   -1    0    0  501    0  0.00000000000E+00  0.00000000000E+00  0.62025916157E+02  0.62025916362E+02  0.50400000000E-02 0.  1.
         -1   -1    0    0    0  501 -0.00000000000E+00 -0.00000000000E+00 -0.14631598622E+00  0.14640276440E+00  0.50400000000E-02 0. -1.
         31    1    1    2    0    0  0.28693224632E+00 -0.85657321001E+00  0.36296297256E+02  0.36417437339E+02  0.28271010000E+01 0.  1.
        -31    1    1    2    0    0 -0.28693224632E+00  0.85657321001E+00  0.25583302914E+02  0.25754881787E+02  0.28271010000E+01 0. -1.
<mgrwt>
<rscale>  0 0.60259728E+01</rscale>
<asrwt>0</asrwt>
<pdfrwt beam="1">  1        1 0.51408423E+00 0.60259728E+01</pdfrwt>
<pdfrwt beam="2">  1       -1 0.31133248E+00 0.60259728E+01</pdfrwt>
<totfact> 0.55347637E-02</totfact>
</mgrwt>
</event>
<event>
 4    1  0.4231559E-004  0.6564354E+01  0.7818608E-02  0.2347291E+00
          1   -1    0    0  501    0  0.00000000000E+00  0.00000000000E+00  0.27451128099E+02  0.27451128561E+02  0.50400000000E-02 0. -1.
         -1   -1    0    0    0  501 -0.00000000000E+00 -0.00000000000E+00 -0.39241479109E+00  0.39244715550E+00  0.50400000000E-02 0.  1.
         31    1    1    2    0    0  0.49987686885E+00  0.12727903534E+01  0.17576312846E+02  0.17854667330E+02  0.28271010000E+01 0. -1.
        -31    1    1    2    0    0 -0.49987686885E+00 -0.12727903534E+01  0.94824004621E+01  0.99889083866E+01  0.28271010000E+01 0.  1.
<mgrwt>
<rscale>  0 0.65643540E+01</rscale>
<asrwt>0</asrwt>
<pdfrwt beam="1">  1        1 0.23023017E+00 0.65643540E+01</pdfrwt>
<pdfrwt beam="2">  1       -1 0.82494717E+00 0.65643540E+01</pdfrwt>
<totfact> 0.26301197E-03</totfact>
</mgrwt>
</event>
<event>
 4    1  0.4231559E-004  0.5956783E+01  0.7818608E-02  0.2421082E+00
          1   -1    0    0  501    0  0.00000000000E+00  0.00000000000E+00  0.70182382424E+02  0.70182382605E+02  0.50400000000E-02 0.  1.
         -1   -1    0    0    0  501 -0.00000000000E+00 -0.00000000000E+00 -0.12634621660E+00  0.12644670043E+00  0.50400000000E-02 0. -1.
         31    1    1    2    0    0  0.85128398704E+00 -0.20346780858E+00  0.38982227078E+02  0.39094406398E+02  0.28271010000E+01 0. -1.
        -31    1    1    2    0    0 -0.85128398704E+00  0.20346780858E+00  0.31073809129E+02  0.31214422907E+02  0.28271010000E+01 0.  1.
<mgrwt>
<rscale>  0 0.59567835E+01</rscale>
<asrwt>0</asrwt>
<pdfrwt beam="1">  1        1 0.58136259E+00 0.59567835E+01</pdfrwt>
<pdfrwt beam="2">  1       -1 0.26901774E+00 0.59567835E+01</pdfrwt>
<totfact> 0.48561675E-02</totfact>
</mgrwt>
</event>
<event>
 4    1  0.4231559E-004  0.7288932E+01  0.7818608E-02  0.2272815E+00
         -1   -1    0    0    0  501 -0.00000000000E+00  0.00000000000E+00  0.84101366566E+02  0.84101366717E+02  0.50400000000E-02 0.  1.
          1   -1    0    0  501    0  0.00000000000E+00 -0.00000000000E+00 -0.15788969406E+00  0.15797011455E+00  0.50400000000E-02 0. -1.
         31    1    1    2    0    0  0.20132410043E+01 -0.69370845945E+00  0.31925508222E+02  0.32121098146E+02  0.28271010000E+01 0. -1.
        -31    1    1    2    0    0 -0.20132410043E+01  0.69370845945E+00  0.52017968650E+02  0.52138238686E+02  0.28271010000E+01 0.  1.
<mgrwt>
<rscale>  0 0.72889323E+01</rscale>
<asrwt>0</asrwt>
<pdfrwt beam="2">  1        1 0.33610654E+00 0.72889323E+01</pdfrwt>
<pdfrwt beam="1">  1       -1 0.69671515E+00 0.72889323E+01</pdfrwt>
<totfact> 0.23926570E-03</totfact>
</mgrwt>
</event>
<event>
 4    1  0.4231559E-004  0.6468819E+01  0.7818608E-02  0.2358127E+00
         -1   -1    0    0    0  501 -0.00000000000E+00  0.00000000000E+00  0.62045775742E+02  0.62045775946E+02  0.50400000000E-02 0. -1.
          1   -1    0    0  501    0  0.00000000000E+00 -0.00000000000E+00 -0.16857000306E+00  0.16864533060E+00  0.50400000000E-02 0.  1.
         31    1    1    2    0    0  0.65902688799E+00  0.86022007961E+00  0.19995620419E+02  0.20223541506E+02  0.28271010000E+01 0.  1.
        -31    1    1    2    0    0 -0.65902688799E+00 -0.86022007961E+00  0.41881585319E+02  0.41990879771E+02  0.28271010000E+01 0. -1.
<mgrwt>
<rscale>  0 0.64688194E+01</rscale>
<asrwt>0</asrwt>
<pdfrwt beam="2">  1        1 0.35853054E+00 0.64688194E+01</pdfrwt>
<pdfrwt beam="1">  1       -1 0.51443236E+00 0.64688194E+01</pdfrwt>
<totfact> 0.12141172E-02</totfact>
</mgrwt>
</event>
<event>
 4    1  0.4231559E-004  0.5952579E+01  0.7818608E-02  0.2421637E+00
          1   -1    0    0  501    0  0.00000000000E+00  0.00000000000E+00  0.44870016276E+02  0.44870016559E+02  0.50400000000E-02 0.  1.
         -1   -1    0    0    0  501 -0.00000000000E+00 -0.00000000000E+00 -0.19738889924E+00  0.19745323280E+00  0.50400000000E-02 0. -1.
         31    1    1    2    0    0  0.41646775871E+00  0.82449302483E+00  0.23184983398E+02  0.23374969291E+02  0.28271010000E+01 0.  1.
        -31    1    1    2    0    0 -0.41646775871E+00 -0.82449302483E+00  0.21487643979E+02  0.21692500501E+02  0.28271010000E+01 0. -1.
<mgrwt>
<rscale>  0 0.59525790E+01</rscale>
<asrwt>0</asrwt>
<pdfrwt beam="1">  1        1 0.37264937E+00 0.59525790E+01</pdfrwt>
<pdfrwt beam="2">  1       -1 0.41909678E+00 0.59525790E+01</pdfrwt>
<totfact> 0.46854253E-02</totfact>
</mgrwt>
</event>
<event>
 4    1  0.4231559E-004  0.6732119E+01  0.7818608E-02  0.2328878E+00
         -1   -1    0    0    0  501 -0.00000000000E+00  0.00000000000E+00  0.53710744664E+02  0.53710744901E+02  0.50400000000E-02 0. -1.
          1   -1    0    0  501    0  0.00000000000E+00 -0.00000000000E+00 -0.21092106848E+00  0.21098127578E+00  0.50400000000E-02 0.  1.
         31    1    1    2    0    0 -0.47929994109E+00 -0.13263573290E+01  0.17447347677E+02  0.17731085507E+02  0.28271010000E+01 0.  1.
        -31    1    1    2    0    0  0.47929994109E+00  0.13263573290E+01  0.36052475918E+02  0.36190640670E+02  0.28271010000E+01 0.  1.
<mgrwt>
<rscale>  0 0.67321192E+01</rscale>
<asrwt>0</asrwt>
<pdfrwt beam="2">  1        1 0.44802988E+00 0.67321192E+01</pdfrwt>
<pdfrwt beam="1">  1       -1 0.44586256E+00 0.67321192E+01</pdfrwt>
<totfact> 0.15584149E-02</totfact>
</mgrwt>
</event>
<event>
 4    1  0.4231559E-004  0.5724611E+01  0.7818608E-02  0.2452706E+00
         -1   -1    0    0    0  501 -0.00000000000E+00  0.00000000000E+00  0.38817914664E+02  0.38817914992E+02  0.50400000000E-02 0. -1.
          1   -1    0    0  501    0  0.00000000000E+00 -0.00000000000E+00 -0.21102660220E+00  0.21108677940E+00  0.50400000000E-02 0.  1.
         31    1    1    2    0    0  0.39936722491E+00 -0.11617498713E+00  0.20429973260E+02  0.20628846266E+02  0.28271010000E+01 0. -1.
        -31    1    1    2    0    0 -0.39936722491E+00  0.11617498713E+00  0.18176914802E+02  0.18400155505E+02  0.28271010000E+01 0.  1.
<mgrwt>
<rscale>  0 0.57246112E+01</rscale>
<asrwt>0</asrwt>
<pdfrwt beam="2">  1        1 0.44758107E+00 0.57246112E+01</pdfrwt>
<pdfrwt beam="1">  1       -1 0.32271909E+00 0.57246112E+01</pdfrwt>
<totfact> 0.90423752E-02</totfact>
</mgrwt>
</event>
<event>
 4    1  0.4231559E-004  0.5842426E+01  0.7818608E-02  0.2436394E+00
          1   -1    0    0  501    0  0.00000000000E+00  0.00000000000E+00  0.55383061508E+02  0.55383061737E+02  0.50400000000E-02 0.  1.
         -1   -1    0    0    0  501 -0.00000000000E+00 -0.00000000000E+00 -0.15403971805E+00  0.15412214746E+00  0.50400000000E-02 0. -1.
         31    1    1    2    0    0  0.27383318084E+00 -0.18469331474E+00  0.33861593953E+02  0.33981011482E+02  0.28271010000E+01 0.  1.
        -31    1    1    2    0    0 -0.27383318084E+00  0.18469331474E+00  0.21367427837E+02  0.21556172403E+02  0.28271010000E+01 0. -1.
<mgrwt>
<rscale>  0 0.58424264E+01</rscale>
<asrwt>0</asrwt>
<pdfrwt beam="1">  1        1 0.45922029E+00 0.58424264E+01</pdfrwt>
<pdfrwt beam="2">  1       -1 0.32761955E+00 0.58424264E+01</pdfrwt>
<totfact> 0.75876581E-02</totfact>
</mgrwt>
</event>
<event>
 4    1  0.4231559E-004  0.5978594E+01  0.7818608E-02  0.2418218E+00
         -1   -1    0    0    0  501 -0.00000000000E+00  0.00000000000E+00  0.86368401088E+02  0.86368401235E+02  0.50400000000E-02 0.  1.
          1   -1    0    0  501    0  0.00000000000E+00 -0.00000000000E+00 -0.10340103603E+00  0.10352379365E+00  0.50400000000E-02 0. -1.
         31    1    1    2    0    0 -0.57001435732E+00  0.78474640606E+00  0.43877437696E+02  0.43979117569E+02  0.28271010000E+01 0. -1.
        -31    1    1    2    0    0  0.57001435732E+00 -0.78474640606E+00  0.42387562356E+02  0.42492807460E+02  0.28271010000E+01 0. -1.
<mgrwt>
<rscale>  0 0.59785938E+01</rscale>
<asrwt>0</asrwt>
<pdfrwt beam="2">  1        1 0.22033837E+00 0.59785938E+01</pdfrwt>
<pdfrwt beam="1">  1       -1 0.71501038E+00 0.59785938E+01</pdfrwt>
<totfact> 0.62630128E-03</totfact>
</mgrwt>
</event>
<event>
 4    1  0.4231559E-004  0.6742816E+01  0.7818608E-02  0.2327730E+00
         -1   -1    0    0    0  501 -0.00000000000E+00  0.00000000000E+00  0.61189648283E+02  0.61189648491E+02  0.50400000000E-02 0.  1.
          1   -1    0    0  501    0  0.00000000000E+00 -0.00000000000E+00 -0.18572237644E+00  0.18579074980E+00  0.50400000000E-02 0. -1.
         31    1    1    2    0    0  0.14433085586E-01 -0.17562073971E+01  0.35398810628E+02  0.35554926054E+02  0.28271010000E+01 0.  1.
        -31    1    1    2    0    0 -0.14433085586E-01  0.17562073971E+01  0.25605115279E+02  0.25820513187E+02  0.28271010000E+01 0.  1.
<mgrwt>
<rscale>  0 0.67428159E+01</rscale>
<asrwt>0</asrwt>
<pdfrwt beam="2">  1        1 0.39487092E+00 0.67428159E+01</pdfrwt>
<pdfrwt beam="1">  1       -1 0.50749507E+00 0.67428159E+01</pdfrwt>
<totfact> 0.97308661E-03</totfact>
</mgrwt>
</event>
<event>
 4    1  0.4231559E-004  0.6433990E+01  0.7818608E-02  0.2362144E+00
          1   -1    0    0  501    0  0.00000000000E+00  0.00000000000E+00  0.43917046664E+02  0.43917046953E+02  0.50400000000E-02 0. -1.
         -1   -1    0    0    0  501 -0.00000000000E+00 -0.00000000000E+00 -0.23562289555E+00  0.23567679246E+00  0.50400000000E-02 0.  1.
         31    1    1    2    0    0  0.25665727183E+00 -0.14121509328E+00  0.32181677815E+02  0.32306945101E+02  0.28271010000E+01 0. -1.
        -31    1    1    2    0    0 -0.25665727183E+00  0.14121509328E+00  0.11499745953E+02  0.11845778645E+02  0.28271010000E+01 0.  1.
<mgrwt>
<rscale>  0 0.64339903E+01</rscale>
<asrwt>0</asrwt>
<pdfrwt beam="1">  1        1 0.36508561E+00 0.64339903E+01</pdfrwt>
<pdfrwt beam="2">  1       -1 0.49977034E+00 0.64339903E+01</pdfrwt>
<totfact> 0.14435979E-02</totfact>
</mgrwt>
</event>
<event>
 4    1  0.4231559E-004  0.6629067E+01  0.7818608E-02  0.2340097E+00
         -1   -1    0    0    0  501 -0.00000000000E+00  0.00000000000E+00  0.41759417637E+02  0.41759417941E+02  0.50400000000E-02 0.  1.
          1   -1    0    0  501    0  0.00000000000E+00 -0.00000000000E+00 -0.26305713966E+00  0.26310541675E+00  0.50400000000E-02 0. -1.
         31    1    1    2    0    0  0.65766313771E+00 -0.17578153112E+00  0.10664750138E+02  0.11054085919E+02  0.28271010000E+01 0. -1.
        -31    1    1    2    0    0 -0.65766313771E+00  0.17578153112E+00  0.30831610359E+02  0.30968437438E+02  0.28271010000E+01 0.  1.
<mgrwt>
<rscale>  0 0.66290674E+01</rscale>
<asrwt>0</asrwt>
<pdfrwt beam="2">  1        1 0.55742945E+00 0.66290674E+01</pdfrwt>
<pdfrwt beam="1">  1       -1 0.34747162E+00 0.66290674E+01</pdfrwt>
<totfact> 0.21676191E-02</totfact>
</mgrwt>
</event>
<event>
 4    1  0.4231559E-004  0.6175221E+01  0.7818608E-02  0.2393161E+00
         -1   -1    0    0    0  501 -0.00000000000E+00  0.00000000000E+00  0.31174915139E+02  0.31174915546E+02  0.50400000000E-02 0. -1.
          1   -1    0    0  501    0  0.00000000000E+00 -0.00000000000E+00 -0.30578041511E+00  0.30582194798E+00  0.50400000000E-02 0.  1.
         31    1    1    2    0    0  0.85285810707E+00 -0.88033181166E+00  0.14434446624E+02  0.14759678196E+02  0.28271010000E+01 0.  1.
        -31    1    1    2    0    0 -0.85285810707E+00  0.88033181166E+00  0.16434688100E+02  0.16721059299E+02  0.28271010000E+01 0. -1.
<mgrwt>
<rscale>  0 0.61752210E+01</rscale>
<asrwt>0</asrwt>
<pdfrwt beam="2">  1        1 0.64569479E+00 0.61752210E+01</pdfrwt>
<pdfrwt beam="1">  1       -1 0.26030476E+00 0.61752210E+01</pdfrwt>
<totfact> 0.26245945E-02</totfact>
</mgrwt>
</event>
<event>
 4    1  0.4231559E-004  0.6475026E+01  0.7818608E-02  0.2357415E+00
         -1   -1    0    0    0  501 -0.00000000000E+00  0.00000000000E+00  0.39018633651E+02  0.39018633977E+02  0.50400000000E-02 0.  1.
          1   -1    0    0  501    0  0.00000000000E+00 -0.00000000000E+00 -0.26860382603E+00  0.26865110638E+00  0.50400000000E-02 0. -1.
         31    1    1    2    0    0 -0.89649159192E+00  0.90868696477E+00  0.13749610839E+02  0.14095166102E+02  0.28271010000E+01 0. -1.
        -31    1    1    2    0    0  0.89649159192E+00 -0.90868696477E+00  0.25000418987E+02  0.25192118981E+02  0.28271010000E+01 0.  1.
<mgrwt>
<rscale>  0 0.64750257E+01</rscale>
<asrwt>0</asrwt>
<pdfrwt beam="2">  1        1 0.56885049E+00 0.64750257E+01</pdfrwt>
<pdfrwt beam="1">  1       -1 0.32485476E+00 0.64750257E+01</pdfrwt>
<totfact> 0.26136546E-02</totfact>
</mgrwt>
</event>
<event>
 4    1  0.4231559E-004  0.6337080E+01  0.7818608E-02  0.2373513E+00
         -1   -1    0    0    0  501 -0.00000000000E+00  0.00000000000E+00  0.35940943305E+02  0.35940943659E+02  0.50400000000E-02 0. -1.
          1   -1    0    0  501    0  0.00000000000E+00 -0.00000000000E+00 -0.27931421907E+00  0.27935968674E+00  0.50400000000E-02 0.  1.
         31    1    1    2    0    0 -0.85053385411E+00  0.72642280438E+00  0.12731255758E+02  0.13089250214E+02  0.28271010000E+01 0.  1.
        -31    1    1    2    0    0  0.85053385411E+00 -0.72642280438E+00  0.22930373328E+02  0.23131053131E+02  0.28271010000E+01 0.  1.
<mgrwt>
<rscale>  0 0.63370802E+01</rscale>
<asrwt>0</asrwt>
<pdfrwt beam="2">  1        1 0.59100818E+00 0.63370802E+01</pdfrwt>
<pdfrwt beam="1">  1       -1 0.29949481E+00 0.63370802E+01</pdfrwt>
<totfact> 0.28941721E-02</totfact>
</mgrwt>
</event>
<event>
 4    1  0.4231559E-004  0.5944731E+01  0.7818608E-02  0.2422673E+00
         -1   -1    0    0    0  501 -0.00000000000E+00  0.00000000000E+00  0.25826658228E+02  0.25826658720E+02  0.50400000000E-02 0. -1.
          1   -1    0    0  501    0  0.00000000000E+00 -0.00000000000E+00 -0.34206760148E+00  0.34210472897E+00  0.50400000000E-02 0.  1.
         31    1    1    2    0    0 -0.80067109846E+00  0.26373921907E-02  0.14717684901E+02  0.15008125468E+02  0.28271010000E+01 0. -1.
        -31    1    1    2    0    0  0.80067109846E+00 -0.26373921907E-02  0.10766905726E+02  0.11160637981E+02  0.28271010000E+01 0. -1.
<mgrwt>
<rscale>  0 0.59447305E+01</rscale>
<asrwt>0</asrwt>
<pdfrwt beam="2">  1        1 0.71986044E+00 0.59447305E+01</pdfrwt>
<pdfrwt beam="1">  1       -1 0.21638165E+00 0.59447305E+01</pdfrwt>
<totfact> 0.18593350E-02</totfact>
</mgrwt>
</event>
<event>
 4    1  0.4231559E-004  0.6219743E+01  0.7818608E-02  0.2387672E+00
         -1   -1    0    0    0  501 -0.00000000000E+00  0.00000000000E+00  0.81446868317E+02  0.81446868473E+02  0.50400000000E-02 0. -1.
          1   -1    0    0  501    0  0.00000000000E+00 -0.00000000000E+00 -0.11869002469E+00  0.11879698464E+00  0.50400000000E-02 0.  1.
         31    1    1    2    0    0  0.10283003664E+00 -0.12189957684E+01  0.46262928086E+02  0.46365370049E+02  0.28271010000E+01 0. -1.
        -31    1    1    2    0    0 -0.10283003664E+00  0.12189957684E+01  0.35065250207E+02  0.35200295408E+02  0.28271010000E+01 0.  1.
<mgrwt>
<rscale>  0 0.62197425E+01</rscale>
<asrwt>0</asrwt>
<pdfrwt beam="2">  1        1 0.25281602E+00 0.62197425E+01</pdfrwt>
<pdfrwt beam="1">  1       -1 0.67444199E+00 0.62197425E+01</pdfrwt>
<totfact> 0.55370189E-03</totfact>
</mgrwt>
</event>
<event>
 4    1  0.4231559E-004  0.5846912E+01  0.7818608E-02  0.2435784E+00
         -1   -1    0    0    0  501 -0.00000000000E+00  0.00000000000E+00  0.40805991167E+02  0.40805991479E+02  0.50400000000E-02 0. -1.
          1   -1    0    0  501    0  0.00000000000E+00 -0.00000000000E+00 -0.20941395143E+00  0.20947459190E+00  0.50400000000E-02 0.  1.
         31    1    1    2    0    0  0.33476044487E+00 -0.16940627476E+00  0.15788356865E+02  0.16043860995E+02  0.28271010000E+01 0.  1.
        -31    1    1    2    0    0 -0.33476044487E+00  0.16940627476E+00  0.24808220351E+02  0.24971605076E+02  0.28271010000E+01 0. -1.
<mgrwt>
<rscale>  0 0.58469116E+01</rscale>
<asrwt>0</asrwt>
<pdfrwt beam="2">  1        1 0.44429617E+00 0.58469116E+01</pdfrwt>
<pdfrwt beam="1">  1       -1 0.33914457E+00 0.58469116E+01</pdfrwt>
<totfact> 0.74776431E-02</totfact>
</mgrwt>
</event>
<event>
 4    1  0.4231559E-004  0.5915870E+01  0.7818608E-02  0.2426503E+00
         -1   -1    0    0    0  501 -0.00000000000E+00  0.00000000000E+00  0.57833858065E+02  0.57833858285E+02  0.50400000000E-02 0.  1.
          1   -1    0    0  501    0  0.00000000000E+00 -0.00000000000E+00 -0.15124254407E+00  0.15132649714E+00  0.50400000000E-02 0. -1.
         31    1    1    2    0    0  0.16160143046E+00  0.43972684055E+00  0.21655932909E+02  0.21844711143E+02  0.28271010000E+01 0. -1.
        -31    1    1    2    0    0 -0.16160143046E+00 -0.43972684055E+00  0.36026682613E+02  0.36140473639E+02  0.28271010000E+01 0. -1.
<mgrwt>
<rscale>  0 0.59158703E+01</rscale>
<asrwt>0</asrwt>
<pdfrwt beam="2">  1        1 0.32172692E+00 0.59158703E+01</pdfrwt>
<pdfrwt beam="1">  1       -1 0.47946208E+00 0.59158703E+01</pdfrwt>
<totfact> 0.29347864E-02</totfact>
</mgrwt>
</event>
<event>
 4    1  0.4231559E-004  0.5748627E+01  0.7818608E-02  0.2449335E+00
          1   -1    0    0  501    0  0.00000000000E+00  0.00000000000E+00  0.22017815001E+02  0.22017815578E+02  0.50400000000E-02 0. -1.
         -1   -1    0    0    0  501 -0.00000000000E+00 -0.00000000000E+00 -0.37520941859E+00  0.37524326696E+00  0.50400000000E-02 0.  1.
         31    1    1    2    0    0 -0.34128231765E+00  0.19248262010E+00  0.12146038386E+02  0.12476869468E+02  0.28271010000E+01 0. -1.
        -31    1    1    2    0    0  0.34128231765E+00 -0.19248262010E+00  0.94965671962E+01  0.99161893768E+01  0.28271010000E+01 0.  1.
<mgrwt>
<rscale>  0 0.57486266E+01</rscale>
<asrwt>0</asrwt>
<pdfrwt beam="1">  1        1 0.18516148E+00 0.57486266E+01</pdfrwt>
<pdfrwt beam="2">  1       -1 0.78665073E+00 0.57486266E+01</pdfrwt>
<totfact> 0.58432908E-03</totfact>
</mgrwt>
</event>
<event>
 4    1  0.4231559E-004  0.6815251E+01  0.7818608E-02  0.2320032E+00
         -1   -1    0    0    0  501 -0.00000000000E+00  0.00000000000E+00  0.38896422649E+02  0.38896422976E+02  0.50400000000E-02 0.  1.
          1   -1    0    0  501    0  0.00000000000E+00 -0.00000000000E+00 -0.29851255030E+00  0.29855509422E+00  0.50400000000E-02 0. -1.
         31    1    1    2    0    0  0.14049689112E+01 -0.10194811684E+01  0.14821494078E+02  0.15188234468E+02  0.28271010000E+01 0.  1.
        -31    1    1    2    0    0 -0.14049689112E+01  0.10194811684E+01  0.23776416021E+02  0.24006743602E+02  0.28271010000E+01 0.  1.
<mgrwt>
<rscale>  0 0.68152507E+01</rscale>
<asrwt>0</asrwt>
<pdfrwt beam="2">  1        1 0.63168478E+00 0.68152507E+01</pdfrwt>
<pdfrwt beam="1">  1       -1 0.32409150E+00 0.68152507E+01</pdfrwt>
<totfact> 0.13028604E-02</totfact>
</mgrwt>
</event>
<event>
 4    1  0.4231559E-004  0.5914301E+01  0.7818608E-02  0.2426713E+00
          1   -1    0    0  501    0  0.00000000000E+00  0.00000000000E+00  0.64417664171E+02  0.64417664368E+02  0.50400000000E-02 0.  1.
         -1   -1    0    0    0  501 -0.00000000000E+00 -0.00000000000E+00 -0.13570366824E+00  0.13579722815E+00  0.50400000000E-02 0. -1.
         31    1    1    2    0    0 -0.85366272240E+00 -0.13780185202E+00  0.31407976420E+02  0.31546809859E+02  0.28271010000E+01 0.  1.
        -31    1    1    2    0    0  0.85366272240E+00  0.13780185202E+00  0.32873984082E+02  0.33006651737E+02  0.28271010000E+01 0.  1.
<mgrwt>
<rscale>  0 0.59143011E+01</rscale>
<asrwt>0</asrwt>
<pdfrwt beam="1">  1        1 0.53377319E+00 0.59143011E+01</pdfrwt>
<pdfrwt beam="2">  1       -1 0.28883811E+00 0.59143011E+01</pdfrwt>
<totfact> 0.61323647E-02</totfact>
</mgrwt>
</event>
<event>
 4    1  0.4231559E-004  0.5815685E+01  0.7818608E-02  0.2440048E+00
          1   -1    0    0  501    0  0.00000000000E+00  0.00000000000E+00  0.58333892464E+02  0.58333892682E+02  0.50400000000E-02 0. -1.
         -1   -1    0    0    0  501 -0.00000000000E+00 -0.00000000000E+00 -0.14490684145E+00  0.14499446299E+00  0.50400000000E-02 0.  1.
         31    1    1    2    0    0  0.21607925557E+00 -0.22305076938E+00  0.35182824504E+02  0.35297593148E+02  0.28271010000E+01 0. -1.
        -31    1    1    2    0    0 -0.21607925557E+00  0.22305076938E+00  0.23006161118E+02  0.23181293997E+02  0.28271010000E+01 0.  1.
<mgrwt>
<rscale>  0 0.58156852E+01</rscale>
<asrwt>0</asrwt>
<pdfrwt beam="1">  1        1 0.48354435E+00 0.58156852E+01</pdfrwt>
<pdfrwt beam="2">  1       -1 0.30829739E+00 0.58156852E+01</pdfrwt>
<totfact> 0.77853702E-02</totfact>
</mgrwt>
</event>
<event>
 4    1  0.4231559E-004  0.6797044E+01  0.7818608E-02  0.2321954E+00
          1   -1    0    0  501    0  0.00000000000E+00  0.00000000000E+00  0.70478511478E+02  0.70478511658E+02  0.50400000000E-02 0.  1.
         -1   -1    0    0    0  501 -0.00000000000E+00 -0.00000000000E+00 -0.16384011072E+00  0.16391761187E+00  0.50400000000E-02 0. -1.
         31    1    1    2    0    0  0.19270267628E+00 -0.16522336621E+01  0.44397509529E+02  0.44518517079E+02  0.28271010000E+01 0.  1.
        -31    1    1    2    0    0 -0.19270267628E+00  0.16522336621E+01  0.25917161838E+02  0.26123912191E+02  0.28271010000E+01 0. -1.
<mgrwt>
<rscale>  0 0.67970437E+01</rscale>
<asrwt>0</asrwt>
<pdfrwt beam="1">  1        1 0.58412103E+00 0.67970437E+01</pdfrwt>
<pdfrwt beam="2">  1       -1 0.34861147E+00 0.67970437E+01</pdfrwt>
<totfact> 0.16002383E-02</totfact>
</mgrwt>
</event>
<event>
 4    1  0.4231559E-004  0.7028586E+01  0.7818608E-02  0.2298122E+00
         -1   -1    0    0    0  501 -0.00000000000E+00  0.00000000000E+00  0.52391238874E+02  0.52391239116E+02  0.50400000000E-02 0.  1.
          1   -1    0    0  501    0  0.00000000000E+00 -0.00000000000E+00 -0.23570409291E+00  0.23575797127E+00  0.50400000000E-02 0. -1.
         31    1    1    2    0    0  0.34954143023E+00  0.97451856249E+00  0.39650491607E+02  0.39764630646E+02  0.28271010000E+01 0.  1.
        -31    1    1    2    0    0 -0.34954143023E+00 -0.97451856249E+00  0.12505043173E+02  0.12862366441E+02  0.28271010000E+01 0. -1.
<mgrwt>
<rscale>  0 0.70285855E+01</rscale>
<asrwt>0</asrwt>
<pdfrwt beam="2">  1        1 0.50037366E+00 0.70285855E+01</pdfrwt>
<pdfrwt beam="1">  1       -1 0.43515683E+00 0.70285855E+01</pdfrwt>
<totfact> 0.11009409E-02</totfact>
</mgrwt>
</event>
<event>
 4    1  0.4231559E-004  0.5952755E+01  0.7818608E-02  0.2421613E+00
          1   -1    0    0  501    0  0.00000000000E+00  0.00000000000E+00  0.35389740580E+02  0.35389740939E+02  0.50400000000E-02 0. -1.
         -1   -1    0    0    0  501 -0.00000000000E+00 -0.00000000000E+00 -0.25029605935E+00  0.25034679732E+00  0.50400000000E-02 0.  1.
         31    1    1    2    0    0  0.72136073319E+00  0.56296580669E+00  0.18589848415E+02  0.18825840113E+02  0.28271010000E+01 0. -1.
        -31    1    1    2    0    0 -0.72136073319E+00 -0.56296580669E+00  0.16549596105E+02  0.16814247623E+02  0.28271010000E+01 0. -1.
<mgrwt>
<rscale>  0 0.59527550E+01</rscale>
<asrwt>0</asrwt>
<pdfrwt beam="1">  1        1 0.29469718E+00 0.59527550E+01</pdfrwt>
<pdfrwt beam="2">  1       -1 0.52998603E+00 0.59527550E+01</pdfrwt>
<totfact> 0.16815656E-02</totfact>
</mgrwt>
</event>
<event>
 4    1  0.4231559E-004  0.6114029E+01  0.7818608E-02  0.2400815E+00
          1   -1    0    0  501    0  0.00000000000E+00  0.00000000000E+00  0.65803067340E+02  0.65803067533E+02  0.50400000000E-02 0.  1.
         -1   -1    0    0    0  501 -0.00000000000E+00 -0.00000000000E+00 -0.14197487241E+00  0.14206430233E+00  0.50400000000E-02 0. -1.
         31    1    1    2    0    0 -0.98963047494E+00 -0.11084144311E+00  0.26348400376E+02  0.26518340007E+02  0.28271010000E+01 0. -1.
        -31    1    1    2    0    0  0.98963047494E+00  0.11084144311E+00  0.39312692092E+02  0.39426791829E+02  0.28271010000E+01 0. -1.
<mgrwt>
<rscale>  0 0.61140288E+01</rscale>
<asrwt>0</asrwt>
<pdfrwt beam="1">  1        1 0.54528049E+00 0.61140288E+01</pdfrwt>
<pdfrwt beam="2">  1       -1 0.30216168E+00 0.61140288E+01</pdfrwt>
<totfact> 0.45553862E-02</totfact>
</mgrwt>
</event>
<event>
 4    1  0.4231559E-004  0.6041369E+01  0.7818608E-02  0.2410070E+00
          1   -1    0    0  501    0  0.00000000000E+00  0.00000000000E+00  0.59285858980E+02  0.59285859195E+02  0.50400000000E-02 0.  1.
         -1   -1    0    0    0  501 -0.00000000000E+00 -0.00000000000E+00 -0.15386598051E+00  0.15394850294E+00  0.50400000000E-02 0. -1.
         31    1    1    2    0    0 -0.55600142378E+00 -0.53589280287E+00  0.22364716016E+02  0.22555915881E+02  0.28271010000E+01 0.  1.
        -31    1    1    2    0    0  0.55600142378E+00  0.53589280287E+00  0.36767276984E+02  0.36883891817E+02  0.28271010000E+01 0. -1.
<mgrwt>
<rscale>  0 0.60413693E+01</rscale>
<asrwt>0</asrwt>
<pdfrwt beam="1">  1        1 0.49148992E+00 0.60413693E+01</pdfrwt>
<pdfrwt beam="2">  1       -1 0.32731095E+00 0.60413693E+01</pdfrwt>
<totfact> 0.55835470E-02</totfact>
</mgrwt>
</event>
<event>
 4    1  0.4231559E-004  0.6941506E+01  0.7818608E-02  0.2306932E+00
         -1   -1    0    0    0  501 -0.00000000000E+00  0.00000000000E+00  0.54826977657E+02  0.54826977889E+02  0.50400000000E-02 0.  1.
          1   -1    0    0  501    0  0.00000000000E+00 -0.00000000000E+00 -0.21968250416E+00  0.21974031090E+00  0.50400000000E-02 0. -1.
         31    1    1    2    0    0 -0.16763415767E+01 -0.11115851529E+01  0.28007705901E+02  0.28221797117E+02  0.28271010000E+01 0.  1.
        -31    1    1    2    0    0  0.16763415767E+01  0.11115851529E+01  0.26599589252E+02  0.26824921083E+02  0.28271010000E+01 0. -1.
<mgrwt>
<rscale>  0 0.69415056E+01</rscale>
<asrwt>0</asrwt>
<pdfrwt beam="2">  1        1 0.46659824E+00 0.69415056E+01</pdfrwt>
<pdfrwt beam="1">  1       -1 0.45516478E+00 0.69415056E+01</pdfrwt>
<totfact> 0.11292852E-02</totfact>
</mgrwt>
</event>
<event>
 4    1  0.4231559E-004  0.6711409E+01  0.7818608E-02  0.2331110E+00
          1   -1    0    0  501    0  0.00000000000E+00  0.00000000000E+00  0.26638449024E+02  0.26638449501E+02  0.50400000000E-02 0.  1.
         -1   -1    0    0    0  501 -0.00000000000E+00 -0.00000000000E+00 -0.42271006785E+00  0.42274011291E+00  0.50400000000E-02 0. -1.
         31    1    1    2    0    0  0.85172985607E+00 -0.15945138748E+01  0.13181698407E+02  0.13602117159E+02  0.28271010000E+01 0. -1.
        -31    1    1    2    0    0 -0.85172985607E+00  0.15945138748E+01  0.13034040549E+02  0.13459072455E+02  0.28271010000E+01 0. -1.
<mgrwt>
<rscale>  0 0.67114093E+01</rscale>
<asrwt>0</asrwt>
<pdfrwt beam="1">  1        1 0.22376085E+00 0.67114093E+01</pdfrwt>
<pdfrwt beam="2">  1       -1 0.88725351E+00 0.67114093E+01</pdfrwt>
<totfact> 0.10336299E-03</totfact>
</mgrwt>
</event>
<event>
 4    1  0.4231559E-004  0.6194981E+01  0.7818608E-02  0.2390717E+00
         -1   -1    0    0    0  501 -0.00000000000E+00  0.00000000000E+00  0.38799096802E+02  0.38799097130E+02  0.50400000000E-02 0. -1.
          1   -1    0    0  501    0  0.00000000000E+00 -0.00000000000E+00 -0.24725930250E+00  0.24731066348E+00  0.50400000000E-02 0.  1.
         31    1    1    2    0    0 -0.11518306704E+01 -0.15761824241E+00  0.22429826424E+02  0.22637163490E+02  0.28271010000E+01 0.  1.
        -31    1    1    2    0    0  0.11518306704E+01  0.15761824241E+00  0.16122011076E+02  0.16409244303E+02  0.28271010000E+01 0.  1.
<mgrwt>
<rscale>  0 0.61949808E+01</rscale>
<asrwt>0</asrwt>
<pdfrwt beam="2">  1        1 0.52392124E+00 0.61949808E+01</pdfrwt>
<pdfrwt beam="1">  1       -1 0.32286302E+00 0.61949808E+01</pdfrwt>
<totfact> 0.42917506E-02</totfact>
</mgrwt>
</event>
<event>
 4    1  0.4231559E-004  0.6060098E+01  0.7818608E-02  0.2407667E+00
         -1   -1    0    0    0  501 -0.00000000000E+00  0.00000000000E+00  0.38704730269E+02  0.38704730597E+02  0.50400000000E-02 0.  1.
          1   -1    0    0  501    0  0.00000000000E+00 -0.00000000000E+00 -0.23718410501E+00  0.23723764724E+00  0.50400000000E-02 0. -1.
         31    1    1    2    0    0 -0.40692950412E+00 -0.94243592632E+00  0.21594110670E+02  0.21802566197E+02  0.28271010000E+01 0. -1.
        -31    1    1    2    0    0  0.40692950412E+00  0.94243592632E+00  0.16873435493E+02  0.17139402046E+02  0.28271010000E+01 0. -1.
<mgrwt>
<rscale>  0 0.60600976E+01</rscale>
<asrwt>0</asrwt>
<pdfrwt beam="2">  1        1 0.50269956E+00 0.60600976E+01</pdfrwt>
<pdfrwt beam="1">  1       -1 0.32199944E+00 0.60600976E+01</pdfrwt>
<totfact> 0.53710656E-02</totfact>
</mgrwt>
</event>
<event>
 4    1  0.4231559E-004  0.6302371E+01  0.7818608E-02  0.2377656E+00
          1   -1    0    0  501    0  0.00000000000E+00  0.00000000000E+00  0.58312626780E+02  0.58312626998E+02  0.50400000000E-02 0. -1.
         -1   -1    0    0    0  501 -0.00000000000E+00 -0.00000000000E+00 -0.17025100512E+00  0.17032558922E+00  0.50400000000E-02 0.  1.
         31    1    1    2    0    0  0.90729387644E+00 -0.69727717298E+00  0.36425418905E+02  0.36552879778E+02  0.28271010000E+01 0. -1.
        -31    1    1    2    0    0 -0.90729387644E+00  0.69727717298E+00  0.21716956870E+02  0.21930072809E+02  0.28271010000E+01 0.  1.
<mgrwt>
<rscale>  0 0.63023712E+01</rscale>
<asrwt>0</asrwt>
<pdfrwt beam="1">  1        1 0.48357797E+00 0.63023712E+01</pdfrwt>
<pdfrwt beam="2">  1       -1 0.36203106E+00 0.63023712E+01</pdfrwt>
<totfact> 0.37540342E-02</totfact>
</mgrwt>
</event>
<event>
 4    1  0.4231559E-004  0.7453360E+01  0.7818608E-02  0.2257578E+00
         -1   -1    0    0    0  501 -0.00000000000E+00  0.00000000000E+00  0.48946502633E+02  0.48946502893E+02  0.50400000000E-02 0.  1.
          1   -1    0    0  501    0  0.00000000000E+00 -0.00000000000E+00 -0.28371866763E+00  0.28376342957E+00  0.50400000000E-02 0. -1.
         31    1    1    2    0    0 -0.22759218347E+00  0.24078293741E+01  0.22911613440E+02  0.23211720552E+02  0.28271010000E+01 0. -1.
        -31    1    1    2    0    0  0.22759218347E+00 -0.24078293741E+01  0.25751170525E+02  0.26018545770E+02  0.28271010000E+01 0.  1.
<mgrwt>
<rscale>  0 0.74533602E+01</rscale>
<asrwt>0</asrwt>
<pdfrwt beam="2">  1        1 0.60150495E+00 0.74533602E+01</pdfrwt>
<pdfrwt beam="1">  1       -1 0.40707029E+00 0.74533602E+01</pdfrwt>
<totfact> 0.57253404E-03</totfact>
</mgrwt>
</event>
<event>
 4    1  0.4231559E-004  0.5730659E+01  0.7818608E-02  0.2451855E+00
         -1   -1    0    0    0  501 -0.00000000000E+00  0.00000000000E+00  0.33616956330E+02  0.33616956707E+02  0.50400000000E-02 0. -1.
          1   -1    0    0  501    0  0.00000000000E+00 -0.00000000000E+00 -0.24419897803E+00  0.24425098254E+00  0.50400000000E-02 0.  1.
         31    1    1    2    0    0 -0.45037206127E-01 -0.31297186883E+00  0.14659800921E+02  0.14933259619E+02  0.28271010000E+01 0.  1.
        -31    1    1    2    0    0  0.45037206127E-01  0.31297186883E+00  0.18712956430E+02  0.18927948071E+02  0.28271010000E+01 0. -1.
<mgrwt>
<rscale>  0 0.57306590E+01</rscale>
<asrwt>0</asrwt>
<pdfrwt beam="2">  1        1 0.51698014E+00 0.57306590E+01</pdfrwt>
<pdfrwt beam="1">  1       -1 0.27998816E+00 0.57306590E+01</pdfrwt>
<totfact> 0.81805864E-02</totfact>
</mgrwt>
</event>
<event>
 4    1  0.4231559E-004  0.5819128E+01  0.7818608E-02  0.2439576E+00
          1   -1    0    0  501    0  0.00000000000E+00  0.00000000000E+00  0.57158759507E+02  0.57158759730E+02  0.50400000000E-02 0.  1.
         -1   -1    0    0    0  501 -0.00000000000E+00 -0.00000000000E+00 -0.14806304960E+00  0.14814880444E+00  0.50400000000E-02 0. -1.
         31    1    1    2    0    0  0.36952268946E+00  0.16317627405E+00  0.33987524114E+02  0.34107293487E+02  0.28271010000E+01 0.  1.
        -31    1    1    2    0    0 -0.36952268946E+00 -0.16317627405E+00  0.23023172343E+02  0.23199615047E+02  0.28271010000E+01 0. -1.
<mgrwt>
<rscale>  0 0.58191284E+01</rscale>
<asrwt>0</asrwt>
<pdfrwt beam="1">  1        1 0.47385362E+00 0.58191284E+01</pdfrwt>
<pdfrwt beam="2">  1       -1 0.31497498E+00 0.58191284E+01</pdfrwt>
<totfact> 0.78177483E-02</totfact>
</mgrwt>
</event>
<event>
 4    1  0.4231559E-004  0.6006348E+01  0.7818608E-02  0.2414598E+00
         -1   -1    0    0    0  501 -0.00000000000E+00  0.00000000000E+00  0.38772561631E+02  0.38772561958E+02  0.50400000000E-02 0. -1.
          1   -1    0    0  501    0  0.00000000000E+00 -0.00000000000E+00 -0.23258672019E+00  0.23264132051E+00  0.50400000000E-02 0.  1.
         31    1    1    2    0    0 -0.54361932208E+00 -0.85426865889E+00  0.19500245756E+02  0.19730113571E+02  0.28271010000E+01 0.  1.
        -31    1    1    2    0    0  0.54361932208E+00  0.85426865889E+00  0.19039729155E+02  0.19275089708E+02  0.28271010000E+01 0. -1.
<mgrwt>
<rscale>  0 0.60063480E+01</rscale>
<asrwt>0</asrwt>
<pdfrwt beam="2">  1        1 0.49302121E+00 0.60063480E+01</pdfrwt>
<pdfrwt beam="1">  1       -1 0.32252231E+00 0.60063480E+01</pdfrwt>
<totfact> 0.58669006E-02</totfact>
</mgrwt>
</event>
<event>
 4    1  0.4231559E-004  0.6059779E+01  0.7818608E-02  0.2407708E+00
          1   -1    0    0  501    0  0.00000000000E+00  0.00000000000E+00  0.55494903841E+02  0.55494904069E+02  0.50400000000E-02 0.  1.
         -1   -1    0    0    0  501 -0.00000000000E+00 -0.00000000000E+00 -0.16538611457E+00  0.16546289159E+00  0.50400000000E-02 0. -1.
         31    1    1    2    0    0 -0.66464453169E+00 -0.81245021013E+00  0.30356854938E+02  0.30506277542E+02  0.28271010000E+01 0.  1.
        -31    1    1    2    0    0  0.66464453169E+00  0.81245021013E+00  0.24972662788E+02  0.25154089419E+02  0.28271010000E+01 0.  1.
<mgrwt>
<rscale>  0 0.60597787E+01</rscale>
<asrwt>0</asrwt>
<pdfrwt beam="1">  1        1 0.46023886E+00 0.60597787E+01</pdfrwt>
<pdfrwt beam="2">  1       -1 0.35166944E+00 0.60597787E+01</pdfrwt>
<totfact> 0.54241446E-02</totfact>
</mgrwt>
</event>
<event>
 4    1  0.4231559E-004  0.7810644E+01  0.7818608E-02  0.2226280E+00
         -1   -1    0    0    0  501 -0.00000000000E+00  0.00000000000E+00  0.79626693143E+02  0.79626693302E+02  0.50400000000E-02 0.  1.
          1   -1    0    0  501    0  0.00000000000E+00 -0.00000000000E+00 -0.19150473662E+00  0.19157104622E+00  0.50400000000E-02 0. -1.
         31    1    1    2    0    0  0.14972824113E+01 -0.22885037383E+00  0.62487798275E+02  0.62570054023E+02  0.28271010000E+01 0.  1.
        -31    1    1    2    0    0 -0.14972824113E+01  0.22885037383E+00  0.16947390131E+02  0.17248210325E+02  0.28271010000E+01 0. -1.
<mgrwt>
<rscale>  0 0.78106444E+01</rscale>
<asrwt>0</asrwt>
<pdfrwt beam="2">  1        1 0.40741651E+00 0.78106444E+01</pdfrwt>
<pdfrwt beam="1">  1       -1 0.65999326E+00 0.78106444E+01</pdfrwt>
<totfact> 0.14821785E-03</totfact>
</mgrwt>
</event>
<event>
 4    1  0.4231559E-004  0.6140727E+01  0.7818608E-02  0.2397460E+00
          1   -1    0    0  501    0  0.00000000000E+00  0.00000000000E+00  0.60981077119E+02  0.60981077328E+02  0.50400000000E-02 0. -1.
         -1   -1    0    0    0  501 -0.00000000000E+00 -0.00000000000E+00 -0.15454979713E+00  0.15463195463E+00  0.50400000000E-02 0.  1.
         31    1    1    2    0    0  0.61048751908E+00 -0.93944637450E+00  0.34629817913E+02  0.34763084490E+02  0.28271010000E+01 0. -1.
        -31    1    1    2    0    0 -0.61048751908E+00  0.93944637450E+00  0.26196709409E+02  0.26372624793E+02  0.28271010000E+01 0. -1.
<mgrwt>
<rscale>  0 0.61407266E+01</rscale>
<asrwt>0</asrwt>
<pdfrwt beam="1">  1        1 0.50551282E+00 0.61407266E+01</pdfrwt>
<pdfrwt beam="2">  1       -1 0.32878480E+00 0.61407266E+01</pdfrwt>
<totfact> 0.47662116E-02</totfact>
</mgrwt>
</event>
<event>
 4    1  0.4231559E-004  0.6045681E+01  0.7818608E-02  0.2409516E+00
         -1   -1    0    0    0  501 -0.00000000000E+00  0.00000000000E+00  0.53114344179E+02  0.53114344419E+02  0.50400000000E-02 0. -1.
          1   -1    0    0  501    0  0.00000000000E+00 -0.00000000000E+00 -0.17199855907E+00  0.17207238571E+00  0.50400000000E-02 0.  1.
         31    1    1    2    0    0 -0.10266110016E+01 -0.26427586163E+00  0.27757289100E+02  0.27921020220E+02  0.28271010000E+01 0. -1.
        -31    1    1    2    0    0  0.10266110016E+01  0.26427586163E+00  0.25185056520E+02  0.25365396584E+02  0.28271010000E+01 0.  1.
<mgrwt>
<rscale>  0 0.60456808E+01</rscale>
<asrwt>0</asrwt>
<pdfrwt beam="2">  1        1 0.36562937E+00 0.60456808E+01</pdfrwt>
<pdfrwt beam="1">  1       -1 0.44060938E+00 0.60456808E+01</pdfrwt>
<totfact> 0.36186322E-02</totfact>
</mgrwt>
</event>
<event>
 4    1  0.4231559E-004  0.5978668E+01  0.7818608E-02  0.2418208E+00
         -1   -1    0    0    0  501 -0.00000000000E+00  0.00000000000E+00  0.45949188176E+02  0.45949188452E+02  0.50400000000E-02 0. -1.
          1   -1    0    0  501    0  0.00000000000E+00 -0.00000000000E+00 -0.19444534984E+00  0.19451065696E+00  0.50400000000E-02 0.  1.
         31    1    1    2    0    0 -0.19902894368E+00 -0.10594909663E+00  0.15584803522E+02  0.15840752464E+02  0.28271010000E+01 0.  1.
        -31    1    1    2    0    0  0.19902894368E+00  0.10594909663E+00  0.30169939304E+02  0.30302946646E+02  0.28271010000E+01 0. -1.
<mgrwt>
<rscale>  0 0.59786684E+01</rscale>
<asrwt>0</asrwt>
<pdfrwt beam="2">  1        1 0.41291789E+00 0.59786684E+01</pdfrwt>
<pdfrwt beam="1">  1       -1 0.38154839E+00 0.59786684E+01</pdfrwt>
<totfact> 0.55788729E-02</totfact>
</mgrwt>
</event>
<event>
 4    1  0.4231559E-004  0.9007254E+01  0.7818608E-02  0.2136319E+00
          1   -1    0    0  501    0  0.00000000000E+00  0.00000000000E+00  0.61855315799E+02  0.61855316004E+02  0.50400000000E-02 0.  1.
         -1   -1    0    0    0  501 -0.00000000000E+00 -0.00000000000E+00 -0.32788521385E+00  0.32792394707E+00  0.50400000000E-02 0. -1.
         31    1    1    2    0    0 -0.29298708270E+01 -0.15308390546E+01  0.38822249074E+02  0.39065165231E+02  0.28271010000E+01 0.  1.
        -31    1    1    2    0    0  0.29298708270E+01  0.15308390546E+01  0.22705181511E+02  0.23118074721E+02  0.28271010000E+01 0. -1.
<mgrwt>
<rscale>  0 0.90072535E+01</rscale>
<asrwt>0</asrwt>
<pdfrwt beam="1">  1        1 0.51417454E+00 0.90072535E+01</pdfrwt>
<pdfrwt beam="2">  1       -1 0.69547031E+00 0.90072535E+01</pdfrwt>
<totfact> 0.43974904E-04</totfact>
</mgrwt>
</event>
<event>
 4    1  0.4231559E-004  0.6713320E+01  0.7818608E-02  0.2330904E+00
          1   -1    0    0  501    0  0.00000000000E+00  0.00000000000E+00  0.71216216485E+02  0.71216216664E+02  0.50400000000E-02 0. -1.
         -1   -1    0    0    0  501 -0.00000000000E+00 -0.00000000000E+00 -0.15817038258E+00  0.15825066042E+00  0.50400000000E-02 0.  1.
         31    1    1    2    0    0 -0.13773094788E+01  0.10059271525E+01  0.29098810624E+02  0.29285528006E+02  0.28271010000E+01 0.  1.
        -31    1    1    2    0    0  0.13773094788E+01 -0.10059271525E+01  0.41959235479E+02  0.42088939318E+02  0.28271010000E+01 0. -1.
<mgrwt>
<rscale>  0 0.67133203E+01</rscale>
<asrwt>0</asrwt>
<pdfrwt beam="1">  1        1 0.59017403E+00 0.67133203E+01</pdfrwt>
<pdfrwt beam="2">  1       -1 0.33658831E+00 0.67133203E+01</pdfrwt>
<totfact> 0.17656351E-02</totfact>
</mgrwt>
</event>
<event>
 4    1  0.4231559E-004  0.5827072E+01  0.7818608E-02  0.2438489E+00
         -1   -1    0    0    0  501 -0.00000000000E+00  0.00000000000E+00  0.48273247606E+02  0.48273247869E+02  0.50400000000E-02 0.  1.
          1   -1    0    0  501    0  0.00000000000E+00 -0.00000000000E+00 -0.17581032974E+00  0.17588255639E+00  0.50400000000E-02 0. -1.
         31    1    1    2    0    0 -0.41076748696E-01  0.67824142369E+00  0.22504531420E+02  0.22691587279E+02  0.28271010000E+01 0. -1.
        -31    1    1    2    0    0  0.41076748696E-01 -0.67824142369E+00  0.25592905856E+02  0.25757543146E+02  0.28271010000E+01 0.  1.
<mgrwt>
<rscale>  0 0.58270719E+01</rscale>
<asrwt>0</asrwt>
<pdfrwt beam="2">  1        1 0.37357855E+00 0.58270719E+01</pdfrwt>
<pdfrwt beam="1">  1       -1 0.40061131E+00 0.58270719E+01</pdfrwt>
<totfact> 0.60803036E-02</totfact>
</mgrwt>
</event>
<event>
 4    1  0.4231559E-004  0.6764963E+01  0.7818608E-02  0.2325362E+00
          1   -1    0    0  501    0  0.00000000000E+00  0.00000000000E+00  0.55896174956E+02  0.55896175184E+02  0.50400000000E-02 0.  1.
         -1   -1    0    0    0  501 -0.00000000000E+00 -0.00000000000E+00 -0.20465504369E+00  0.20471709383E+00  0.50400000000E-02 0. -1.
         31    1    1    2    0    0 -0.52729916804E+00 -0.14147971176E+01  0.18879549290E+02  0.19149662575E+02  0.28271010000E+01 0. -1.
        -31    1    1    2    0    0  0.52729916804E+00  0.14147971176E+01  0.36811970623E+02  0.36951229702E+02  0.28271010000E+01 0.  1.
<mgrwt>
<rscale>  0 0.67649630E+01</rscale>
<asrwt>0</asrwt>
<pdfrwt beam="1">  1        1 0.46388143E+00 0.67649630E+01</pdfrwt>
<pdfrwt beam="2">  1       -1 0.43483876E+00 0.67649630E+01</pdfrwt>
<totfact> 0.15834841E-02</totfact>
</mgrwt>
</event>
<event>
 4    1  0.4231559E-004  0.6011527E+01  0.7818608E-02  0.2413926E+00
         -1   -1    0    0    0  501 -0.00000000000E+00  0.00000000000E+00  0.63443193095E+02  0.63443193295E+02  0.50400000000E-02 0. -1.
          1   -1    0    0  501    0  0.00000000000E+00 -0.00000000000E+00 -0.14235997247E+00  0.14244916062E+00  0.50400000000E-02 0.  1.
         31    1    1    2    0    0  0.51696412498E+00  0.32115166879E+00  0.22981410219E+02  0.23162644625E+02  0.28271010000E+01 0.  1.
        -31    1    1    2    0    0 -0.51696412498E+00 -0.32115166879E+00  0.40319422903E+02  0.40422997831E+02  0.28271010000E+01 0.  1.
<mgrwt>
<rscale>  0 0.60115266E+01</rscale>
<asrwt>0</asrwt>
<pdfrwt beam="2">  1        1 0.30295467E+00 0.60115266E+01</pdfrwt>
<pdfrwt beam="1">  1       -1 0.52577058E+00 0.60115266E+01</pdfrwt>
<totfact> 0.16690787E-02</totfact>
</mgrwt>
</event>
<event>
 4    1  0.4231559E-004  0.6486706E+01  0.7818608E-02  0.2356078E+00
          1   -1    0    0  501    0  0.00000000000E+00  0.00000000000E+00  0.66481692648E+02  0.66481692839E+02  0.50400000000E-02 0. -1.
         -1   -1    0    0    0  501 -0.00000000000E+00 -0.00000000000E+00 -0.15818876845E+00  0.15826903697E+00  0.50400000000E-02 0.  1.
         31    1    1    2    0    0 -0.56589031895E+00  0.64392275151E+00  0.46914068300E+02  0.47006990681E+02  0.28271010000E+01 0. -1.
        -31    1    1    2    0    0  0.56589031895E+00 -0.64392275151E+00  0.19409435580E+02  0.19632971195E+02  0.28271010000E+01 0.  1.
<mgrwt>
<rscale>  0 0.64867058E+01</rscale>
<asrwt>0</asrwt>
<pdfrwt beam="1">  1        1 0.55102583E+00 0.64867058E+01</pdfrwt>
<pdfrwt beam="2">  1       -1 0.33657420E+00 0.64867058E+01</pdfrwt>
<totfact> 0.26926269E-02</totfact>
</mgrwt>
</event>
<event>
 4    1  0.4231559E-004  0.6015740E+01  0.7818608E-02  0.2413380E+00
         -1   -1    0    0    0  501 -0.00000000000E+00  0.00000000000E+00  0.34412335182E+02  0.34412335551E+02  0.50400000000E-02 0.  1.
          1   -1    0    0  501    0  0.00000000000E+00 -0.00000000000E+00 -0.26288355064E+00  0.26293185961E+00  0.50400000000E-02 0. -1.
         31    1    1    2    0    0 -0.82670114119E+00 -0.95143694035E-01  0.20544179968E+02  0.20754477052E+02  0.28271010000E+01 0.  1.
        -31    1    1    2    0    0  0.82670114119E+00  0.95143694035E-01  0.13605271663E+02  0.13920790358E+02  0.28271010000E+01 0.  1.
<mgrwt>
<rscale>  0 0.60157396E+01</rscale>
<asrwt>0</asrwt>
<pdfrwt beam="2">  1        1 0.55632094E+00 0.60157396E+01</pdfrwt>
<pdfrwt beam="1">  1       -1 0.28671937E+00 0.60157396E+01</pdfrwt>
<totfact> 0.49957161E-02</totfact>
</mgrwt>
</event>
<event>
 4    1  0.4231559E-004  0.6238306E+01  0.7818608E-02  0.2385403E+00
         -1   -1    0    0    0  501 -0.00000000000E+00  0.00000000000E+00  0.49514531542E+02  0.49514531799E+02  0.50400000000E-02 0. -1.
          1   -1    0    0  501    0  0.00000000000E+00 -0.00000000000E+00 -0.19645754815E+00  0.19652218659E+00  0.50400000000E-02 0.  1.
         31    1    1    2    0    0 -0.12543009459E+01 -0.29489720536E+00  0.22456722004E+02  0.22670621925E+02  0.28271010000E+01 0.  1.
        -31    1    1    2    0    0  0.12543009459E+01  0.29489720536E+00  0.26861351990E+02  0.27040432061E+02  0.28271010000E+01 0.  1.
<mgrwt>
<rscale>  0 0.62383063E+01</rscale>
<asrwt>0</asrwt>
<pdfrwt beam="2">  1        1 0.41729923E+00 0.62383063E+01</pdfrwt>
<pdfrwt beam="1">  1       -1 0.41104578E+00 0.62383063E+01</pdfrwt>
<totfact> 0.35079665E-02</totfact>
</mgrwt>
</event>
<event>
 4    1  0.4231559E-004  0.6636752E+01  0.7818608E-02  0.2339251E+00
          1   -1    0    0  501    0  0.00000000000E+00  0.00000000000E+00  0.30677924051E+02  0.30677924465E+02  0.50400000000E-02 0. -1.
         -1   -1    0    0    0  501 -0.00000000000E+00 -0.00000000000E+00 -0.35892466766E+00  0.35896005162E+00  0.50400000000E-02 0.  1.
         31    1    1    2    0    0 -0.98472592074E+00 -0.13823214494E+01  0.16900655836E+02  0.17219325349E+02  0.28271010000E+01 0. -1.
        -31    1    1    2    0    0  0.98472592074E+00  0.13823214494E+01  0.13418343547E+02  0.13817559167E+02  0.28271010000E+01 0. -1.
<mgrwt>
<rscale>  0 0.66367520E+01</rscale>
<asrwt>0</asrwt>
<pdfrwt beam="1">  1        1 0.25663468E+00 0.66367520E+01</pdfrwt>
<pdfrwt beam="2">  1       -1 0.75648483E+00 0.66367520E+01</pdfrwt>
<totfact> 0.36614785E-03</totfact>
</mgrwt>
</event>
<event>
 4    1  0.4231559E-004  0.6162905E+01  0.7818608E-02  0.2394692E+00
         -1   -1    0    0    0  501 -0.00000000000E+00  0.00000000000E+00  0.73708904721E+02  0.73708904894E+02  0.50400000000E-02 0. -1.
          1   -1    0    0  501    0  0.00000000000E+00 -0.00000000000E+00 -0.12877279666E+00  0.12887138844E+00  0.50400000000E-02 0.  1.
         31    1    1    2    0    0 -0.30074208778E+00 -0.11336332675E+01  0.32515721612E+02  0.32659458388E+02  0.28271010000E+01 0.  1.
        -31    1    1    2    0    0  0.30074208778E+00  0.11336332675E+01  0.41064410313E+02  0.41178317895E+02  0.28271010000E+01 0.  1.
<mgrwt>
<rscale>  0 0.61629045E+01</rscale>
<asrwt>0</asrwt>
<pdfrwt beam="2">  1        1 0.27419494E+00 0.61629045E+01</pdfrwt>
<pdfrwt beam="1">  1       -1 0.61054240E+00 0.61629045E+01</pdfrwt>
<totfact> 0.70067602E-03</totfact>
</mgrwt>
</event>
<event>
 4    1  0.4231559E-004  0.6128410E+01  0.7818608E-02  0.2399005E+00
          1   -1    0    0  501    0  0.00000000000E+00  0.00000000000E+00  0.47264517686E+02  0.47264517954E+02  0.50400000000E-02 0. -1.
         -1   -1    0    0    0  501 -0.00000000000E+00 -0.00000000000E+00 -0.19862319965E+00  0.19868713355E+00  0.50400000000E-02 0.  1.
         31    1    1    2    0    0  0.99415696890E+00 -0.55656330470E+00  0.25966615065E+02  0.26144898332E+02  0.28271010000E+01 0. -1.
        -31    1    1    2    0    0 -0.99415696890E+00  0.55656330470E+00  0.21099279421E+02  0.21318306756E+02  0.28271010000E+01 0.  1.
<mgrwt>
<rscale>  0 0.61284104E+01</rscale>
<asrwt>0</asrwt>
<pdfrwt beam="1">  1        1 0.39245899E+00 0.61284104E+01</pdfrwt>
<pdfrwt beam="2">  1       -1 0.42179923E+00 0.61284104E+01</pdfrwt>
<totfact> 0.37624925E-02</totfact>
</mgrwt>
</event>
<event>
 4    1  0.4231559E-004  0.5955239E+01  0.7818608E-02  0.2421286E+00
          1   -1    0    0  501    0  0.00000000000E+00  0.00000000000E+00  0.46505495211E+02  0.46505495484E+02  0.50400000000E-02 0.  1.
         -1   -1    0    0    0  501 -0.00000000000E+00 -0.00000000000E+00 -0.19061521843E+00  0.19068183736E+00  0.50400000000E-02 0. -1.
         31    1    1    2    0    0 -0.92723297565E+00 -0.56358912720E-01  0.22343331321E+02  0.22540627584E+02  0.28271010000E+01 0.  1.
        -31    1    1    2    0    0  0.92723297565E+00  0.56358912720E-01  0.23971548672E+02  0.24155549737E+02  0.28271010000E+01 0.  1.
<mgrwt>
<rscale>  0 0.59552387E+01</rscale>
<asrwt>0</asrwt>
<pdfrwt beam="1">  1        1 0.38611667E+00 0.59552387E+01</pdfrwt>
<pdfrwt beam="2">  1       -1 0.40484071E+00 0.59552387E+01</pdfrwt>
<totfact> 0.51093829E-02</totfact>
</mgrwt>
</event>
<event>
 4    1  0.4231559E-004  0.5871662E+01  0.7818608E-02  0.2432432E+00
          1   -1    0    0  501    0  0.00000000000E+00  0.00000000000E+00  0.33298812837E+02  0.33298813218E+02  0.50400000000E-02 0.  1.
         -1   -1    0    0    0  501 -0.00000000000E+00 -0.00000000000E+00 -0.25881622485E+00  0.25886529286E+00  0.50400000000E-02 0. -1.
         31    1    1    2    0    0  0.59195292185E+00 -0.36406147197E+00  0.18686151770E+02  0.18911576271E+02  0.28271010000E+01 0. -1.
        -31    1    1    2    0    0 -0.59195292185E+00  0.36406147197E+00  0.14353844843E+02  0.14646102241E+02  0.28271010000E+01 0. -1.
<mgrwt>
<rscale>  0 0.58716617E+01</rscale>
<asrwt>0</asrwt>
<pdfrwt beam="1">  1        1 0.27747837E+00 0.58716617E+01</pdfrwt>
<pdfrwt beam="2">  1       -1 0.54764270E+00 0.58716617E+01</pdfrwt>
<totfact> 0.14966981E-02</totfact>
</mgrwt>
</event>
<event>
 4    1  0.4231559E-004  0.6469350E+01  0.7818608E-02  0.2358066E+00
         -1   -1    0    0    0  501 -0.00000000000E+00  0.00000000000E+00  0.44491094398E+02  0.44491094683E+02  0.50400000000E-02 0. -1.
          1   -1    0    0  501    0  0.00000000000E+00 -0.00000000000E+00 -0.23514614935E+00  0.23520015552E+00  0.50400000000E-02 0.  1.
         31    1    1    2    0    0  0.59200675550E-01 -0.15401229955E+01  0.24260448878E+02  0.24473196837E+02  0.28271010000E+01 0. -1.
        -31    1    1    2    0    0 -0.59200675550E-01  0.15401229955E+01  0.19995499370E+02  0.20253098002E+02  0.28271010000E+01 0.  1.
<mgrwt>
<rscale>  0 0.64693504E+01</rscale>
<asrwt>0</asrwt>
<pdfrwt beam="2">  1        1 0.49879902E+00 0.64693504E+01</pdfrwt>
<pdfrwt beam="1">  1       -1 0.36982830E+00 0.64693504E+01</pdfrwt>
<totfact> 0.28981006E-02</totfact>
</mgrwt>
</event>
<event>
 4    1  0.4231559E-004  0.7602654E+01  0.7818608E-02  0.2244210E+00
         -1   -1    0    0    0  501 -0.00000000000E+00  0.00000000000E+00  0.86123683137E+02  0.86123683285E+02  0.50400000000E-02 0.  1.
          1   -1    0    0  501    0  0.00000000000E+00 -0.00000000000E+00 -0.16774497001E+00  0.16782066786E+00  0.50400000000E-02 0. -1.
         31    1    1    2    0    0 -0.15826536761E+01 -0.17469727937E+01  0.32204976127E+02  0.32414652459E+02  0.28271010000E+01 0. -1.
        -31    1    1    2    0    0  0.15826536761E+01  0.17469727937E+01  0.53750962040E+02  0.53876851493E+02  0.28271010000E+01 0.  1.
<mgrwt>
<rscale>  0 0.76026540E+01</rscale>
<asrwt>0</asrwt>
<pdfrwt beam="2">  1        1 0.35705045E+00 0.76026540E+01</pdfrwt>
<pdfrwt beam="1">  1       -1 0.71351853E+00 0.76026540E+01</pdfrwt>
<totfact> 0.18371873E-03</totfact>
</mgrwt>
</event>
<event>
 4    1  0.4231559E-004  0.7626364E+01  0.7818608E-02  0.2242126E+00
         -1   -1    0    0    0  501 -0.00000000000E+00  0.00000000000E+00  0.58041728116E+02  0.58041728335E+02  0.50400000000E-02 0.  1.
          1   -1    0    0  501    0  0.00000000000E+00 -0.00000000000E+00 -0.25049001904E+00  0.25054071773E+00  0.50400000000E-02 0. -1.
         31    1    1    2    0    0  0.12223182524E+01 -0.11001591016E+01  0.13910721072E+02  0.14290034036E+02  0.28271010000E+01 0. -1.
        -31    1    1    2    0    0 -0.12223182524E+01  0.11001591016E+01  0.43880517025E+02  0.44002235016E+02  0.28271010000E+01 0.  1.
<mgrwt>
<rscale>  0 0.76263642E+01</rscale>
<asrwt>0</asrwt>
<pdfrwt beam="2">  1        1 0.53185260E+00 0.76263642E+01</pdfrwt>
<pdfrwt beam="1">  1       -1 0.48200127E+00 0.76263642E+01</pdfrwt>
<totfact> 0.38415741E-03</totfact>
</mgrwt>
</event>
<event>
 4    1  0.4231559E-004  0.6546672E+01  0.7818608E-02  0.2349277E+00
          1   -1    0    0  501    0  0.00000000000E+00  0.00000000000E+00  0.47157348446E+02  0.47157348716E+02  0.50400000000E-02 0.  1.
         -1   -1    0    0    0  501 -0.00000000000E+00 -0.00000000000E+00 -0.22718404553E+00  0.22723994398E+00  0.50400000000E-02 0. -1.
         31    1    1    2    0    0  0.10931361804E+01  0.84619636295E-01  0.14541164031E+02  0.14853957675E+02  0.28271010000E+01 0. -1.
        -31    1    1    2    0    0 -0.10931361804E+01 -0.84619636295E-01  0.32389000370E+02  0.32530630984E+02  0.28271010000E+01 0.  1.
<mgrwt>
<rscale>  0 0.65466718E+01</rscale>
<asrwt>0</asrwt>
<pdfrwt beam="1">  1        1 0.39180893E+00 0.65466718E+01</pdfrwt>
<pdfrwt beam="2">  1       -1 0.48213781E+00 0.65466718E+01</pdfrwt>
<totfact> 0.14962389E-02</totfact>
</mgrwt>
</event>
<event>
 4    1  0.4231559E-004  0.7011283E+01  0.7818608E-02  0.2299858E+00
          1   -1    0    0  501    0  0.00000000000E+00  0.00000000000E+00  0.49853418103E+02  0.49853418357E+02  0.50400000000E-02 0.  1.
         -1   -1    0    0    0  501 -0.00000000000E+00 -0.00000000000E+00 -0.24648709601E+00  0.24653861787E+00  0.50400000000E-02 0. -1.
         31    1    1    2    0    0 -0.52557500065E+00 -0.41179443991E+00  0.10780531339E+02  0.11165041861E+02  0.28271010000E+01 0. -1.
        -31    1    1    2    0    0  0.52557500065E+00  0.41179443991E+00  0.38826399668E+02  0.38934915114E+02  0.28271010000E+01 0.  1.
<mgrwt>
<rscale>  0 0.70112827E+01</rscale>
<asrwt>0</asrwt>
<pdfrwt beam="1">  1        1 0.41426150E+00 0.70112827E+01</pdfrwt>
<pdfrwt beam="2">  1       -1 0.52302780E+00 0.70112827E+01</pdfrwt>
<totfact> 0.63630569E-03</totfact>
</mgrwt>
</event>
<event>
 4    1  0.4231559E-004  0.6411897E+01  0.7818608E-02  0.2364711E+00
          1   -1    0    0  501    0  0.00000000000E+00  0.00000000000E+00  0.93820617027E+02  0.93820617162E+02  0.50400000000E-02 0.  1.
         -1   -1    0    0    0  501 -0.00000000000E+00 -0.00000000000E+00 -0.10949252223E+00  0.10960845781E+00  0.50400000000E-02 0. -1.
         31    1    1    2    0    0 -0.13913375715E+01  0.56221816245E+00  0.44166387580E+02  0.44282210891E+02  0.28271010000E+01 0. -1.
        -31    1    1    2    0    0  0.13913375715E+01 -0.56221816245E+00  0.49544736925E+02  0.49648014729E+02  0.28271010000E+01 0. -1.
<mgrwt>
<rscale>  0 0.64118975E+01</rscale>
<asrwt>0</asrwt>
<pdfrwt beam="1">  1        1 0.77668083E+00 0.64118975E+01</pdfrwt>
<pdfrwt beam="2">  1       -1 0.23331085E+00 0.64118975E+01</pdfrwt>
<totfact> 0.60769546E-03</totfact>
</mgrwt>
</event>
<event>
 4    1  0.4231559E-004  0.5909026E+01  0.7818608E-02  0.2427416E+00
          1   -1    0    0  501    0  0.00000000000E+00  0.00000000000E+00  0.36335584070E+02  0.36335584420E+02  0.50400000000E-02 0. -1.
         -1   -1    0    0    0  501 -0.00000000000E+00 -0.00000000000E+00 -0.24021007020E+00  0.24026293810E+00  0.50400000000E-02 0.  1.
         31    1    1    2    0    0 -0.49679711601E-01  0.83354980315E+00  0.16819462105E+02  0.17075833183E+02  0.28271010000E+01 0.  1.
        -31    1    1    2    0    0  0.49679711601E-01 -0.83354980315E+00  0.19275911895E+02  0.19500014175E+02  0.28271010000E+01 0. -1.
<mgrwt>
<rscale>  0 0.59090258E+01</rscale>
<asrwt>0</asrwt>
<pdfrwt beam="1">  1        1 0.30243470E+00 0.59090258E+01</pdfrwt>
<pdfrwt beam="2">  1       -1 0.50886730E+00 0.59090258E+01</pdfrwt>
<totfact> 0.21868991E-02</totfact>
</mgrwt>
</event>
<event>
 4    1  0.4231559E-004  0.6524757E+01  0.7818608E-02  0.2351750E+00
         -1   -1    0    0    0  501 -0.00000000000E+00  0.00000000000E+00  0.57170007423E+02  0.57170007645E+02  0.50400000000E-02 0.  1.
          1   -1    0    0  501    0  0.00000000000E+00 -0.00000000000E+00 -0.18613168788E+00  0.18619991094E+00  0.50400000000E-02 0. -1.
         31    1    1    2    0    0  0.40107397781E+00 -0.46621225464E+00  0.15240641906E+02  0.15512829528E+02  0.28271010000E+01 0. -1.
        -31    1    1    2    0    0 -0.40107397781E+00  0.46621225464E+00  0.41743233829E+02  0.41843378028E+02  0.28271010000E+01 0.  1.
<mgrwt>
<rscale>  0 0.65247568E+01</rscale>
<asrwt>0</asrwt>
<pdfrwt beam="2">  1        1 0.39565385E+00 0.65247568E+01</pdfrwt>
<pdfrwt beam="1">  1       -1 0.47426125E+00 0.65247568E+01</pdfrwt>
<totfact> 0.16355171E-02</totfact>
</mgrwt>
</event>
<event>
 4    1  0.4231559E-004  0.7462064E+01  0.7818608E-02  0.2256787E+00
         -1   -1    0    0    0  501 -0.00000000000E+00  0.00000000000E+00  0.68890833199E+02  0.68890833384E+02  0.50400000000E-02 0. -1.
          1   -1    0    0  501    0  0.00000000000E+00 -0.00000000000E+00 -0.20203588455E+00  0.20209873885E+00  0.50400000000E-02 0.  1.
         31    1    1    2    0    0  0.18572632237E+01  0.96346232525E+00  0.45873573075E+02  0.46008204628E+02  0.28271010000E+01 0.  1.
        -31    1    1    2    0    0 -0.18572632237E+01 -0.96346232525E+00  0.22815224239E+02  0.23084727494E+02  0.28271010000E+01 0.  1.
<mgrwt>
<rscale>  0 0.74620636E+01</rscale>
<asrwt>0</asrwt>
<pdfrwt beam="2">  1        1 0.42958730E+00 0.74620636E+01</pdfrwt>
<pdfrwt beam="1">  1       -1 0.57130870E+00 0.74620636E+01</pdfrwt>
<totfact> 0.27059933E-03</totfact>
</mgrwt>
</event>
<event>
 4    1  0.4231559E-004  0.6663877E+01  0.7818608E-02  0.2336275E+00
         -1   -1    0    0    0  501 -0.00000000000E+00  0.00000000000E+00  0.38122270904E+02  0.38122271237E+02  0.50400000000E-02 0.  1.
          1   -1    0    0  501    0  0.00000000000E+00 -0.00000000000E+00 -0.29119381463E+00  0.29123742767E+00  0.50400000000E-02 0. -1.
         31    1    1    2    0    0  0.16276319251E+01  0.67543820117E+00  0.19276036726E+02  0.19561786585E+02  0.28271010000E+01 0. -1.
        -31    1    1    2    0    0 -0.16276319251E+01 -0.67543820117E+00  0.18555040363E+02  0.18851722080E+02  0.28271010000E+01 0. -1.
<mgrwt>
<rscale>  0 0.66638768E+01</rscale>
<asrwt>0</asrwt>
<pdfrwt beam="2">  1        1 0.61622187E+00 0.66638768E+01</pdfrwt>
<pdfrwt beam="1">  1       -1 0.31762977E+00 0.66638768E+01</pdfrwt>
<totfact> 0.17034759E-02</totfact>
</mgrwt>
</event>
<event>
 4    1  0.4231559E-004  0.6218992E+01  0.7818608E-02  0.2387764E+00
         -1   -1    0    0    0  501 -0.00000000000E+00  0.00000000000E+00  0.38454501105E+02  0.38454501435E+02  0.50400000000E-02 0.  1.
          1   -1    0    0  501    0  0.00000000000E+00 -0.00000000000E+00 -0.25141353874E+00  0.25146405123E+00  0.50400000000E-02 0. -1.
         31    1    1    2    0    0  0.61612293336E+00 -0.11385525913E+01  0.19248382121E+02  0.19497913319E+02  0.28271010000E+01 0.  1.
        -31    1    1    2    0    0 -0.61612293336E+00  0.11385525913E+01  0.18954705445E+02  0.19208052167E+02  0.28271010000E+01 0. -1.
<mgrwt>
<rscale>  0 0.62189923E+01</rscale>
<asrwt>0</asrwt>
<pdfrwt beam="2">  1        1 0.53263450E+00 0.62189923E+01</pdfrwt>
<pdfrwt beam="1">  1       -1 0.32004800E+00 0.62189923E+01</pdfrwt>
<totfact> 0.40790680E-02</totfact>
</mgrwt>
</event>
<event>
 4    1  0.4231559E-004  0.7571633E+01  0.7818608E-02  0.2246953E+00
          1   -1    0    0  501    0  0.00000000000E+00  0.00000000000E+00  0.82039388089E+02  0.82039388244E+02  0.50400000000E-02 0.  1.
         -1   -1    0    0    0  501 -0.00000000000E+00 -0.00000000000E+00 -0.17466500231E+00  0.17473770238E+00  0.50400000000E-02 0. -1.
         31    1    1    2    0    0 -0.21882958529E+01  0.39451220655E+00  0.28104878377E+02  0.28334095491E+02  0.28271010000E+01 0. -1.
        -31    1    1    2    0    0  0.21882958529E+01 -0.39451220655E+00  0.53759844710E+02  0.53880030456E+02  0.28271010000E+01 0.  1.
<mgrwt>
<rscale>  0 0.75716325E+01</rscale>
<asrwt>0</asrwt>
<pdfrwt beam="1">  1        1 0.67980392E+00 0.75716325E+01</pdfrwt>
<pdfrwt beam="2">  1       -1 0.37170618E+00 0.75716325E+01</pdfrwt>
<totfact> 0.36957471E-03</totfact>
</mgrwt>
</event>
<event>
 4    1  0.4231559E-004  0.6489964E+01  0.7818608E-02  0.2355706E+00
         -1   -1    0    0    0  501 -0.00000000000E+00  0.00000000000E+00  0.38945467073E+02  0.38945467399E+02  0.50400000000E-02 0.  1.
          1   -1    0    0  501    0  0.00000000000E+00 -0.00000000000E+00 -0.27035190711E+00  0.27039888180E+00  0.50400000000E-02 0. -1.
         31    1    1    2    0    0 -0.79072956619E+00  0.13821010169E+01  0.19070573385E+02  0.19344630412E+02  0.28271010000E+01 0. -1.
        -31    1    1    2    0    0  0.79072956619E+00 -0.13821010169E+01  0.19604541781E+02  0.19871235869E+02  0.28271010000E+01 0.  1.
<mgrwt>
<rscale>  0 0.64899642E+01</rscale>
<asrwt>0</asrwt>
<pdfrwt beam="2">  1        1 0.57251906E+00 0.64899642E+01</pdfrwt>
<pdfrwt beam="1">  1       -1 0.32426422E+00 0.64899642E+01</pdfrwt>
<totfact> 0.25325847E-02</totfact>
</mgrwt>
</event>
<event>
 4    1  0.4231559E-004  0.6524416E+01  0.7818608E-02  0.2351789E+00
         -1   -1    0    0    0  501 -0.00000000000E+00  0.00000000000E+00  0.54997322426E+02  0.54997322656E+02  0.50400000000E-02 0. -1.
          1   -1    0    0  501    0  0.00000000000E+00 -0.00000000000E+00 -0.19346732719E+00  0.19353296435E+00  0.50400000000E-02 0.  1.
         31    1    1    2    0    0 -0.67491511070E+00 -0.96142357933E+00  0.17870265582E+02  0.18130602244E+02  0.28271010000E+01 0.  1.
        -31    1    1    2    0    0  0.67491511070E+00  0.96142357933E+00  0.36933589517E+02  0.37060253377E+02  0.28271010000E+01 0. -1.
<mgrwt>
<rscale>  0 0.65244165E+01</rscale>
<asrwt>0</asrwt>
<pdfrwt beam="2">  1        1 0.41113400E+00 0.65244165E+01</pdfrwt>
<pdfrwt beam="1">  1       -1 0.45635661E+00 0.65244165E+01</pdfrwt>
<totfact> 0.18750878E-02</totfact>
</mgrwt>
</event>
<event>
 4    1  0.4231559E-004  0.5963428E+01  0.7818608E-02  0.2420208E+00
         -1   -1    0    0    0  501 -0.00000000000E+00  0.00000000000E+00  0.33440584249E+02  0.33440584628E+02  0.50400000000E-02 0.  1.
          1   -1    0    0  501    0  0.00000000000E+00 -0.00000000000E+00 -0.26583887114E+00  0.26588664316E+00  0.50400000000E-02 0. -1.
         31    1    1    2    0    0  0.69351354539E+00  0.59044368539E+00  0.15107685847E+02  0.15396891131E+02  0.28271010000E+01 0. -1.
        -31    1    1    2    0    0 -0.69351354539E+00 -0.59044368539E+00  0.18067059530E+02  0.18309580140E+02  0.28271010000E+01 0.  1.
<mgrwt>
<rscale>  0 0.59634281E+01</rscale>
<asrwt>0</asrwt>
<pdfrwt beam="2">  1        1 0.56240070E+00 0.59634281E+01</pdfrwt>
<pdfrwt beam="1">  1       -1 0.27870869E+00 0.59634281E+01</pdfrwt>
<totfact> 0.52191676E-02</totfact>
</mgrwt>
</event>
<event>
 4    1  0.4231559E-004  0.6204150E+01  0.7818608E-02  0.2389587E+00
         -1   -1    0    0    0  501 -0.00000000000E+00  0.00000000000E+00  0.36121436196E+02  0.36121436548E+02  0.50400000000E-02 0.  1.
          1   -1    0    0  501    0  0.00000000000E+00 -0.00000000000E+00 -0.26637912029E+00  0.26642679544E+00  0.50400000000E-02 0. -1.
         31    1    1    2    0    0  0.15358288188E+00 -0.77286238337E+00  0.23820307197E+02  0.24000425809E+02  0.28271010000E+01 0.  1.
        -31    1    1    2    0    0 -0.15358288188E+00  0.77286238337E+00  0.12034749878E+02  0.12387437534E+02  0.28271010000E+01 0. -1.
<mgrwt>
<rscale>  0 0.62041503E+01</rscale>
<asrwt>0</asrwt>
<pdfrwt beam="2">  1        1 0.56386512E+00 0.62041503E+01</pdfrwt>
<pdfrwt beam="1">  1       -1 0.30088031E+00 0.62041503E+01</pdfrwt>
<totfact> 0.38125200E-02</totfact>
</mgrwt>
</event>
<event>
 4    1  0.4231559E-004  0.6910417E+01  0.7818608E-02  0.2310121E+00
          1   -1    0    0  501    0  0.00000000000E+00  0.00000000000E+00  0.59205390191E+02  0.59205390405E+02  0.50400000000E-02 0. -1.
         -1   -1    0    0    0  501 -0.00000000000E+00 -0.00000000000E+00 -0.20161320908E+00  0.20167619511E+00  0.50400000000E-02 0.  1.
         31    1    1    2    0    0  0.63481949743E-01  0.13136174045E+01  0.16703580441E+02  0.16992107588E+02  0.28271010000E+01 0.  1.
        -31    1    1    2    0    0 -0.63481949743E-01 -0.13136174045E+01  0.42300196540E+02  0.42414959012E+02  0.28271010000E+01 0. -1.
<mgrwt>
<rscale>  0 0.69104171E+01</rscale>
<asrwt>0</asrwt>
<pdfrwt beam="1">  1        1 0.49121919E+00 0.69104171E+01</pdfrwt>
<pdfrwt beam="2">  1       -1 0.42848693E+00 0.69104171E+01</pdfrwt>
<totfact> 0.13340676E-02</totfact>
</mgrwt>
</event>
<event>
 4    1  0.4231559E-004  0.5805825E+01  0.7818608E-02  0.2441402E+00
          1   -1    0    0  501    0  0.00000000000E+00  0.00000000000E+00  0.62184568219E+02  0.62184568423E+02  0.50400000000E-02 0. -1.
         -1   -1    0    0    0  501 -0.00000000000E+00 -0.00000000000E+00 -0.13546726594E+00  0.13556098901E+00  0.50400000000E-02 0.  1.
         31    1    1    2    0    0  0.24542805608E+00 -0.55828066356E+00  0.33707808742E+02  0.33831653558E+02  0.28271010000E+01 0. -1.
        -31    1    1    2    0    0 -0.24542805608E+00  0.55828066356E+00  0.28341292211E+02  0.28488475854E+02  0.28271010000E+01 0.  1.
<mgrwt>
<rscale>  0 0.58058247E+01</rscale>
<asrwt>0</asrwt>
<pdfrwt beam="1">  1        1 0.51530643E+00 0.58058247E+01</pdfrwt>
<pdfrwt beam="2">  1       -1 0.28831462E+00 0.58058247E+01</pdfrwt>
<totfact> 0.74411969E-02</totfact>
</mgrwt>
</event>
<event>
 4    1  0.4231559E-004  0.5888742E+01  0.7818608E-02  0.2430133E+00
          1   -1    0    0  501    0  0.00000000000E+00  0.00000000000E+00  0.29083593684E+02  0.29083594120E+02  0.50400000000E-02 0. -1.
         -1   -1    0    0    0  501 -0.00000000000E+00 -0.00000000000E+00 -0.29806110997E+00  0.29810371832E+00  0.50400000000E-02 0.  1.
         31    1    1    2    0    0  0.66859107996E+00 -0.41537091843E+00  0.13198692476E+02  0.13521003298E+02  0.28271010000E+01 0. -1.
        -31    1    1    2    0    0 -0.66859107996E+00  0.41537091843E+00  0.15586840097E+02  0.15860694541E+02  0.28271010000E+01 0.  1.
<mgrwt>
<rscale>  0 0.58887420E+01</rscale>
<asrwt>0</asrwt>
<pdfrwt beam="1">  1        1 0.24294844E+00 0.58887420E+01</pdfrwt>
<pdfrwt beam="2">  1       -1 0.62912267E+00 0.58887420E+01</pdfrwt>
<totfact> 0.78684143E-03</totfact>
</mgrwt>
</event>
<event>
 4    1  0.4231559E-004  0.6034338E+01  0.7818608E-02  0.2410976E+00
         -1   -1    0    0    0  501 -0.00000000000E+00  0.00000000000E+00  0.25557634139E+02  0.25557634636E+02  0.50400000000E-02 0.  1.
          1   -1    0    0  501    0  0.00000000000E+00 -0.00000000000E+00 -0.35616911836E+00  0.35620477604E+00  0.50400000000E-02 0. -1.
         31    1    1    2    0    0  0.68182434321E+00  0.27794805236E+00  0.15839142708E+02  0.16106305639E+02  0.28271010000E+01 0.  1.
        -31    1    1    2    0    0 -0.68182434321E+00 -0.27794805236E+00  0.93623223132E+01  0.98075337733E+01  0.28271010000E+01 0. -1.
<mgrwt>
<rscale>  0 0.60343379E+01</rscale>
<asrwt>0</asrwt>
<pdfrwt beam="2">  1        1 0.74902214E+00 0.60343379E+01</pdfrwt>
<pdfrwt beam="1">  1       -1 0.21427376E+00 0.60343379E+01</pdfrwt>
<totfact> 0.12493670E-02</totfact>
</mgrwt>
</event>
<event>
 4    1  0.4231559E-004  0.6624745E+01  0.7818608E-02  0.2340574E+00
         -1   -1    0    0    0  501 -0.00000000000E+00  0.00000000000E+00  0.39805164978E+02  0.39805165297E+02  0.50400000000E-02 0.  1.
          1   -1    0    0  501    0  0.00000000000E+00 -0.00000000000E+00 -0.27561456877E+00  0.27566064667E+00  0.50400000000E-02 0. -1.
         31    1    1    2    0    0  0.94485772598E+00 -0.60714703194E+00  0.11834830998E+02  0.12219537980E+02  0.28271010000E+01 0. -1.
        -31    1    1    2    0    0 -0.94485772598E+00  0.60714703194E+00  0.27694719411E+02  0.27861287963E+02  0.28271010000E+01 0.  1.
<mgrwt>
<rscale>  0 0.66247455E+01</rscale>
<asrwt>0</asrwt>
<pdfrwt beam="2">  1        1 0.58367205E+00 0.66247455E+01</pdfrwt>
<pdfrwt beam="1">  1       -1 0.33141631E+00 0.66247455E+01</pdfrwt>
<totfact> 0.20352897E-02</totfact>
</mgrwt>
</event>
<event>
 4    1  0.4231559E-004  0.6113369E+01  0.7818608E-02  0.2400898E+00
         -1   -1    0    0    0  501 -0.00000000000E+00  0.00000000000E+00  0.45969101817E+02  0.45969102094E+02  0.50400000000E-02 0.  1.
          1   -1    0    0  501    0  0.00000000000E+00 -0.00000000000E+00 -0.20322065663E+00  0.20328314461E+00  0.50400000000E-02 0. -1.
         31    1    1    2    0    0 -0.26686143676E+00  0.59509910904E+00  0.30148699746E+02  0.30287983663E+02  0.28271010000E+01 0.  1.
        -31    1    1    2    0    0  0.26686143676E+00 -0.59509910904E+00  0.15617181415E+02  0.15884401575E+02  0.28271010000E+01 0. -1.
<mgrwt>
<rscale>  0 0.61133690E+01</rscale>
<asrwt>0</asrwt>
<pdfrwt beam="2">  1        1 0.43146550E+00 0.61133690E+01</pdfrwt>
<pdfrwt beam="1">  1       -1 0.38178559E+00 0.61133690E+01</pdfrwt>
<totfact> 0.46822754E-02</totfact>
</mgrwt>
</event>
<event>
 4    1  0.4231559E-004  0.6852758E+01  0.7818608E-02  0.2316099E+00
          1   -1    0    0  501    0  0.00000000000E+00  0.00000000000E+00  0.67901590699E+02  0.67901590886E+02  0.50400000000E-02 0.  1.
         -1   -1    0    0    0  501 -0.00000000000E+00 -0.00000000000E+00 -0.17286141900E+00  0.17293487728E+00  0.50400000000E-02 0. -1.
         31    1    1    2    0    0  0.80790742670E+00  0.15962692228E+00  0.16460553975E+02  0.16721857923E+02  0.28271010000E+01 0. -1.
        -31    1    1    2    0    0 -0.80790742670E+00 -0.15962692228E+00  0.51268175305E+02  0.51352667840E+02  0.28271010000E+01 0.  1.
<mgrwt>
<rscale>  0 0.68527577E+01</rscale>
<asrwt>0</asrwt>
<pdfrwt beam="1">  1        1 0.56288781E+00 0.68527577E+01</pdfrwt>
<pdfrwt beam="2">  1       -1 0.36771665E+00 0.68527577E+01</pdfrwt>
<totfact> 0.15441270E-02</totfact>
</mgrwt>
</event>
<event>
 4    1  0.4231559E-004  0.6623300E+01  0.7818608E-02  0.2340733E+00
         -1   -1    0    0    0  501 -0.00000000000E+00  0.00000000000E+00  0.37100988700E+02  0.37100989043E+02  0.50400000000E-02 0.  1.
          1   -1    0    0  501    0  0.00000000000E+00 -0.00000000000E+00 -0.29557745358E+00  0.29562041990E+00  0.50400000000E-02 0. -1.
         31    1    1    2    0    0 -0.13397842777E+01 -0.10003327041E+01  0.20790449785E+02  0.21048301351E+02  0.28271010000E+01 0. -1.
        -31    1    1    2    0    0  0.13397842777E+01  0.10003327041E+01  0.16014961461E+02  0.16348308111E+02  0.28271010000E+01 0.  1.
<mgrwt>
<rscale>  0 0.66233000E+01</rscale>
<asrwt>0</asrwt>
<pdfrwt beam="2">  1        1 0.62529331E+00 0.66233000E+01</pdfrwt>
<pdfrwt beam="1">  1       -1 0.30922133E+00 0.66233000E+01</pdfrwt>
<totfact> 0.17184947E-02</totfact>
</mgrwt>
</event>
<event>
 4    1  0.4231559E-004  0.7534776E+01  0.7818608E-02  0.2250235E+00
          1   -1    0    0  501    0  0.00000000000E+00  0.00000000000E+00  0.46429108033E+02  0.46429108306E+02  0.50400000000E-02 0. -1.
         -1   -1    0    0    0  501 -0.00000000000E+00 -0.00000000000E+00 -0.30567535049E+00  0.30571689763E+00  0.50400000000E-02 0.  1.
         31    1    1    2    0    0 -0.14690532884E+01  0.19823942279E+01  0.20979408249E+02  0.21312345600E+02  0.28271010000E+01 0.  1.
        -31    1    1    2    0    0  0.14690532884E+01 -0.19823942279E+01  0.25144024433E+02  0.25422479604E+02  0.28271010000E+01 0.  1.
<mgrwt>
<rscale>  0 0.75347757E+01</rscale>
<asrwt>0</asrwt>
<pdfrwt beam="1">  1        1 0.38643623E+00 0.75347757E+01</pdfrwt>
<pdfrwt beam="2">  1       -1 0.64754089E+00 0.75347757E+01</pdfrwt>
<totfact> 0.19347197E-03</totfact>
</mgrwt>
</event>
<event>
 4    1  0.4231559E-004  0.6340385E+01  0.7818608E-02  0.2373121E+00
          1   -1    0    0  501    0  0.00000000000E+00  0.00000000000E+00  0.54163489519E+02  0.54163489753E+02  0.50400000000E-02 0.  1.
         -1   -1    0    0    0  501 -0.00000000000E+00 -0.00000000000E+00 -0.18551712332E+00  0.18558557230E+00  0.50400000000E-02 0. -1.
         31    1    1    2    0    0 -0.99218525065E+00 -0.40033425886E+00  0.35179164615E+02  0.35308792420E+02  0.28271010000E+01 0.  1.
        -31    1    1    2    0    0  0.99218525065E+00  0.40033425886E+00  0.18798807781E+02  0.19040282906E+02  0.28271010000E+01 0. -1.
<mgrwt>
<rscale>  0 0.63403852E+01</rscale>
<asrwt>0</asrwt>
<pdfrwt beam="1">  1        1 0.44939618E+00 0.63403852E+01</pdfrwt>
<pdfrwt beam="2">  1       -1 0.39428141E+00 0.63403852E+01</pdfrwt>
<totfact> 0.33098367E-02</totfact>
</mgrwt>
</event>
<event>
 4    1  0.4231559E-004  0.6632530E+01  0.7818608E-02  0.2339716E+00
          1   -1    0    0  501    0  0.00000000000E+00  0.00000000000E+00  0.54686683011E+02  0.54686683244E+02  0.50400000000E-02 0.  1.
         -1   -1    0    0    0  501 -0.00000000000E+00 -0.00000000000E+00 -0.20107039002E+00  0.20113354604E+00  0.50400000000E-02 0. -1.
         31    1    1    2    0    0  0.48894747733E+00 -0.39750044965E+00  0.13878280661E+02  0.14177314640E+02  0.28271010000E+01 0. -1.
        -31    1    1    2    0    0 -0.48894747733E+00  0.39750044965E+00  0.40607331961E+02  0.40710502150E+02  0.28271010000E+01 0.  1.
<mgrwt>
<rscale>  0 0.66325296E+01</rscale>
<asrwt>0</asrwt>
<pdfrwt beam="1">  1        1 0.45385087E+00 0.66325296E+01</pdfrwt>
<pdfrwt beam="2">  1       -1 0.42721806E+00 0.66325296E+01</pdfrwt>
<totfact> 0.19557393E-02</totfact>
</mgrwt>
</event>
<event>
 4    1  0.4231559E-004  0.5957116E+01  0.7818608E-02  0.2421039E+00
          1   -1    0    0  501    0  0.00000000000E+00  0.00000000000E+00  0.61777024315E+02  0.61777024520E+02  0.50400000000E-02 0. -1.
         -1   -1    0    0    0  501 -0.00000000000E+00 -0.00000000000E+00 -0.14356572855E+00  0.14365416811E+00  0.50400000000E-02 0.  1.
         31    1    1    2    0    0 -0.61299184266E-01 -0.39757713828E+00  0.39621243072E+02  0.39724013239E+02  0.28271010000E+01 0.  1.
        -31    1    1    2    0    0  0.61299184266E-01  0.39757713828E+00  0.22012215514E+02  0.22196665450E+02  0.28271010000E+01 0.  1.
<mgrwt>
<rscale>  0 0.59571161E+01</rscale>
<asrwt>0</asrwt>
<pdfrwt beam="1">  1        1 0.51200350E+00 0.59571161E+01</pdfrwt>
<pdfrwt beam="2">  1       -1 0.30549463E+00 0.59571161E+01</pdfrwt>
<totfact> 0.61112245E-02</totfact>
</mgrwt>
</event>
<event>
 4    1  0.4231559E-004  0.6005905E+01  0.7818608E-02  0.2414656E+00
         -1   -1    0    0    0  501 -0.00000000000E+00  0.00000000000E+00  0.40584677068E+02  0.40584677381E+02  0.50400000000E-02 0.  1.
          1   -1    0    0  501    0  0.00000000000E+00 -0.00000000000E+00 -0.22216639695E+00  0.22222355756E+00  0.50400000000E-02 0. -1.
         31    1    1    2    0    0  0.49443417652E+00  0.31622660971E+00  0.14575268840E+02  0.14858513595E+02  0.28271010000E+01 0. -1.
        -31    1    1    2    0    0 -0.49443417652E+00 -0.31622660971E+00  0.25787241831E+02  0.25948387344E+02  0.28271010000E+01 0.  1.
<mgrwt>
<rscale>  0 0.60059051E+01</rscale>
<asrwt>0</asrwt>
<pdfrwt beam="2">  1        1 0.47118395E+00 0.60059051E+01</pdfrwt>
<pdfrwt beam="1">  1       -1 0.33742001E+00 0.60059051E+01</pdfrwt>
<totfact> 0.59308437E-02</totfact>
</mgrwt>
</event>
<event>
 4    1  0.4231559E-004  0.6720826E+01  0.7818608E-02  0.2330094E+00
         -1   -1    0    0    0  501 -0.00000000000E+00  0.00000000000E+00  0.42518493879E+02  0.42518494178E+02  0.50400000000E-02 0.  1.
          1   -1    0    0  501    0  0.00000000000E+00 -0.00000000000E+00 -0.26556317273E+00  0.26561099434E+00  0.50400000000E-02 0. -1.
         31    1    1    2    0    0 -0.19004778525E+00 -0.16800188712E+01  0.25355329762E+02  0.25568414675E+02  0.28271010000E+01 0.  1.
        -31    1    1    2    0    0  0.19004778525E+00  0.16800188712E+01  0.16897600944E+02  0.17215690497E+02  0.28271010000E+01 0. -1.
<mgrwt>
<rscale>  0 0.67208260E+01</rscale>
<asrwt>0</asrwt>
<pdfrwt beam="2">  1        1 0.56276881E+00 0.67208260E+01</pdfrwt>
<pdfrwt beam="1">  1       -1 0.35376892E+00 0.67208260E+01</pdfrwt>
<totfact> 0.18777265E-02</totfact>
</mgrwt>
</event>
<event>
 4    1  0.4231559E-004  0.6191264E+01  0.7818608E-02  0.2391176E+00
          1   -1    0    0  501    0  0.00000000000E+00  0.00000000000E+00  0.60806225412E+02  0.60806225621E+02  0.50400000000E-02 0. -1.
         -1   -1    0    0    0  501 -0.00000000000E+00 -0.00000000000E+00 -0.15755745728E+00  0.15763804726E+00  0.50400000000E-02 0.  1.
         31    1    1    2    0    0 -0.88111062561E+00 -0.26561264824E+00  0.21833648895E+02  0.22035145340E+02  0.28271010000E+01 0.  1.
        -31    1    1    2    0    0  0.88111062561E+00  0.26561264824E+00  0.38815019060E+02  0.38928718328E+02  0.28271010000E+01 0. -1.
<mgrwt>
<rscale>  0 0.61912639E+01</rscale>
<asrwt>0</asrwt>
<pdfrwt beam="1">  1        1 0.50409188E+00 0.61912639E+01</pdfrwt>
<pdfrwt beam="2">  1       -1 0.33516087E+00 0.61912639E+01</pdfrwt>
<totfact> 0.44339813E-02</totfact>
</mgrwt>
</event>
<event>
 4    1  0.4231559E-004  0.6744040E+01  0.7818608E-02  0.2327599E+00
         -1   -1    0    0    0  501 -0.00000000000E+00  0.00000000000E+00  0.37517343138E+02  0.37517343477E+02  0.50400000000E-02 0.  1.
          1   -1    0    0  501    0  0.00000000000E+00 -0.00000000000E+00 -0.30305236355E+00  0.30309427025E+00  0.50400000000E-02 0. -1.
         31    1    1    2    0    0 -0.15610315806E+01 -0.45636435652E+00  0.23408212304E+02  0.23634339241E+02  0.28271010000E+01 0.  1.
        -31    1    1    2    0    0  0.15610315806E+01  0.45636435652E+00  0.13806078471E+02  0.14186098506E+02  0.28271010000E+01 0. -1.
<mgrwt>
<rscale>  0 0.67440399E+01</rscale>
<asrwt>0</asrwt>
<pdfrwt beam="2">  1        1 0.64103371E+00 0.67440399E+01</pdfrwt>
<pdfrwt beam="1">  1       -1 0.31272584E+00 0.67440399E+01</pdfrwt>
<totfact> 0.13602908E-02</totfact>
</mgrwt>
</event>
<event>
 4    1  0.4231559E-004  0.5812051E+01  0.7818608E-02  0.2440547E+00
          1   -1    0    0  501    0  0.00000000000E+00  0.00000000000E+00  0.40809659814E+02  0.40809660125E+02  0.50400000000E-02 0. -1.
         -1   -1    0    0    0  501 -0.00000000000E+00 -0.00000000000E+00 -0.20690489256E+00  0.20696626818E+00  0.50400000000E-02 0.  1.
         31    1    1    2    0    0  0.57460361302E+00  0.34211009536E+00  0.19788836584E+02  0.20000944029E+02  0.28271010000E+01 0.  1.
        -31    1    1    2    0    0 -0.57460361302E+00 -0.34211009536E+00  0.20813918337E+02  0.21015682365E+02  0.28271010000E+01 0.  1.
<mgrwt>
<rscale>  0 0.58120507E+01</rscale>
<asrwt>0</asrwt>
<pdfrwt beam="1">  1        1 0.33915416E+00 0.58120507E+01</pdfrwt>
<pdfrwt beam="2">  1       -1 0.43900152E+00 0.58120507E+01</pdfrwt>
<totfact> 0.46956851E-02</totfact>
</mgrwt>
</event>
<event>
 4    1  0.4231559E-004  0.5750741E+01  0.7818608E-02  0.2449040E+00
          1   -1    0    0  501    0  0.00000000000E+00  0.00000000000E+00  0.54432215632E+02  0.54432215865E+02  0.50400000000E-02 0. -1.
         -1   -1    0    0    0  501 -0.00000000000E+00 -0.00000000000E+00 -0.15184882693E+00  0.15193244499E+00  0.50400000000E-02 0.  1.
         31    1    1    2    0    0 -0.23941144971E+00  0.36286615378E+00  0.24352364329E+02  0.24519770353E+02  0.28271010000E+01 0.  1.
        -31    1    1    2    0    0  0.23941144971E+00 -0.36286615378E+00  0.29928002476E+02  0.30064377958E+02  0.28271010000E+01 0. -1.
<mgrwt>
<rscale>  0 0.57507414E+01</rscale>
<asrwt>0</asrwt>
<pdfrwt beam="1">  1        1 0.45133993E+00 0.57507414E+01</pdfrwt>
<pdfrwt beam="2">  1       -1 0.32295968E+00 0.57507414E+01</pdfrwt>
<totfact> 0.87008304E-02</totfact>
</mgrwt>
</event>
<event>
 4    1  0.4231559E-004  0.8306794E+01  0.7818608E-02  0.2186462E+00
         -1   -1    0    0    0  501 -0.00000000000E+00  0.00000000000E+00  0.78603423669E+02  0.78603423831E+02  0.50400000000E-02 0. -1.
          1   -1    0    0  501    0  0.00000000000E+00 -0.00000000000E+00 -0.21943599833E+00  0.21949386999E+00  0.50400000000E-02 0.  1.
         31    1    1    2    0    0 -0.92333032011E+00 -0.34659111110E+00  0.11878355606E+02  0.12249918214E+02  0.28271010000E+01 0.  1.
        -31    1    1    2    0    0  0.92333032011E+00  0.34659111110E+00  0.66505632065E+02  0.66572999487E+02  0.28271010000E+01 0. -1.
<mgrwt>
<rscale>  0 0.83067943E+01</rscale>
<asrwt>0</asrwt>
<pdfrwt beam="2">  1        1 0.46663958E+00 0.83067943E+01</pdfrwt>
<pdfrwt beam="1">  1       -1 0.65176303E+00 0.83067943E+01</pdfrwt>
<totfact> 0.88378103E-04</totfact>
</mgrwt>
</event>
<event>
 4    1  0.4231559E-004  0.5854912E+01  0.7818608E-02  0.2434698E+00
          1   -1    0    0  501    0  0.00000000000E+00  0.00000000000E+00  0.47533686635E+02  0.47533686902E+02  0.50400000000E-02 0.  1.
         -1   -1    0    0    0  501 -0.00000000000E+00 -0.00000000000E+00 -0.18025766653E+00  0.18032811191E+00  0.50400000000E-02 0. -1.
         31    1    1    2    0    0 -0.58256967678E-01  0.67227228369E-01  0.17526293233E+02  0.17753066437E+02  0.28271010000E+01 0. -1.
        -31    1    1    2    0    0  0.58256967678E-01 -0.67227228369E-01  0.29827135736E+02  0.29960948577E+02  0.28271010000E+01 0.  1.
<mgrwt>
<rscale>  0 0.58549119E+01</rscale>
<asrwt>0</asrwt>
<pdfrwt beam="1">  1        1 0.39453286E+00 0.58549119E+01</pdfrwt>
<pdfrwt beam="2">  1       -1 0.38296751E+00 0.58549119E+01</pdfrwt>
<totfact> 0.64682994E-02</totfact>
</mgrwt>
</event>
<event>
 4    1  0.4231559E-004  0.7315087E+01  0.7818608E-02  0.2270354E+00
         -1   -1    0    0    0  501 -0.00000000000E+00  0.00000000000E+00  0.46324663414E+02  0.46324663688E+02  0.50400000000E-02 0. -1.
          1   -1    0    0  501    0  0.00000000000E+00 -0.00000000000E+00 -0.28875748332E+00  0.28880146429E+00  0.50400000000E-02 0.  1.
         31    1    1    2    0    0  0.13052704549E+01 -0.12991890303E+00  0.10819630078E+02  0.11259551721E+02  0.28271010000E+01 0.  1.
        -31    1    1    2    0    0 -0.13052704549E+01  0.12991890303E+00  0.35216275852E+02  0.35353913430E+02  0.28271010000E+01 0. -1.
<mgrwt>
<rscale>  0 0.73150871E+01</rscale>
<asrwt>0</asrwt>
<pdfrwt beam="2">  1        1 0.61192018E+00 0.73150871E+01</pdfrwt>
<pdfrwt beam="1">  1       -1 0.38543274E+00 0.73150871E+01</pdfrwt>
<totfact> 0.69688248E-03</totfact>
</mgrwt>
</event>
<event>
 4    1  0.4231559E-004  0.6268609E+01  0.7818608E-02  0.2381722E+00
         -1   -1    0    0    0  501 -0.00000000000E+00  0.00000000000E+00  0.44529483602E+02  0.44529483887E+02  0.50400000000E-02 0.  1.
          1   -1    0    0  501    0  0.00000000000E+00 -0.00000000000E+00 -0.22058573411E+00  0.22064330421E+00  0.50400000000E-02 0. -1.
         31    1    1    2    0    0 -0.62251672231E+00 -0.93491719250E+00  0.16765905251E+02  0.17039650119E+02  0.28271010000E+01 0. -1.
        -31    1    1    2    0    0  0.62251672231E+00  0.93491719250E+00  0.27542992616E+02  0.27710477072E+02  0.28271010000E+01 0.  1.
<mgrwt>
<rscale>  0 0.62686086E+01</rscale>
<asrwt>0</asrwt>
<pdfrwt beam="2">  1        1 0.46807473E+00 0.62686086E+01</pdfrwt>
<pdfrwt beam="1">  1       -1 0.37002536E+00 0.62686086E+01</pdfrwt>
<totfact> 0.39034824E-02</totfact>
</mgrwt>
</event>
<event>
 4    1  0.4231559E-004  0.5901901E+01  0.7818608E-02  0.2428369E+00
         -1   -1    0    0    0  501 -0.00000000000E+00  0.00000000000E+00  0.48980478503E+02  0.48980478762E+02  0.50400000000E-02 0.  1.
          1   -1    0    0  501    0  0.00000000000E+00 -0.00000000000E+00 -0.17775133634E+00  0.17782277461E+00  0.50400000000E-02 0. -1.
         31    1    1    2    0    0  0.83527312893E+00 -0.54555698931E-01  0.23382940471E+02  0.23568094167E+02  0.28271010000E+01 0. -1.
        -31    1    1    2    0    0 -0.83527312893E+00  0.54555698931E-01  0.25419786696E+02  0.25590207370E+02  0.28271010000E+01 0. -1.
<mgrwt>
<rscale>  0 0.59019006E+01</rscale>
<asrwt>0</asrwt>
<pdfrwt beam="2">  1        1 0.37770617E+00 0.59019006E+01</pdfrwt>
<pdfrwt beam="1">  1       -1 0.40647523E+00 0.59019006E+01</pdfrwt>
<totfact> 0.53835677E-02</totfact>
</mgrwt>
</event>
<event>
 4    1  0.4231559E-004  0.5890693E+01  0.7818608E-02  0.2429871E+00
          1   -1    0    0  501    0  0.00000000000E+00  0.00000000000E+00  0.82198750514E+02  0.82198750669E+02  0.50400000000E-02 0.  1.
         -1   -1    0    0    0  501 -0.00000000000E+00 -0.00000000000E+00 -0.10547737178E+00  0.10559771568E+00  0.50400000000E-02 0. -1.
         31    1    1    2    0    0  0.81675694847E+00 -0.93650938395E-01  0.42190668864E+02  0.42293272534E+02  0.28271010000E+01 0.  1.
        -31    1    1    2    0    0 -0.81675694847E+00  0.93650938395E-01  0.39902604279E+02  0.40011075850E+02  0.28271010000E+01 0. -1.
<mgrwt>
<rscale>  0 0.58906933E+01</rscale>
<asrwt>0</asrwt>
<pdfrwt beam="1">  1        1 0.68054994E+00 0.58906933E+01</pdfrwt>
<pdfrwt beam="2">  1       -1 0.22473836E+00 0.58906933E+01</pdfrwt>
<totfact> 0.27971304E-02</totfact>
</mgrwt>
</event>
<event>
 4    1  0.4231559E-004  0.7236282E+01  0.7818608E-02  0.2277812E+00
         -1   -1    0    0    0  501 -0.00000000000E+00  0.00000000000E+00  0.68996667958E+02  0.68996668142E+02  0.50400000000E-02 0.  1.
          1   -1    0    0  501    0  0.00000000000E+00 -0.00000000000E+00 -0.18969933769E+00  0.18976627814E+00  0.50400000000E-02 0. -1.
         31    1    1    2    0    0  0.15902796420E+01  0.31523379021E+00  0.49430100647E+02  0.49537417289E+02  0.28271010000E+01 0.  1.
        -31    1    1    2    0    0 -0.15902796420E+01 -0.31523379021E+00  0.19376867973E+02  0.19649017130E+02  0.28271010000E+01 0. -1.
<mgrwt>
<rscale>  0 0.72362820E+01</rscale>
<asrwt>0</asrwt>
<pdfrwt beam="2">  1        1 0.40343835E+00 0.72362820E+01</pdfrwt>
<pdfrwt beam="1">  1       -1 0.57208185E+00 0.72362820E+01</pdfrwt>
<totfact> 0.34216501E-03</totfact>
</mgrwt>
</event>
<event>
 4    1  0.4231559E-004  0.6116462E+01  0.7818608E-02  0.2400508E+00
          1   -1    0    0  501    0  0.00000000000E+00  0.00000000000E+00  0.73697985879E+02  0.73697986052E+02  0.50400000000E-02 0.  1.
         -1   -1    0    0    0  501 -0.00000000000E+00 -0.00000000000E+00 -0.12685660461E+00  0.12695668447E+00  0.50400000000E-02 0. -1.
         31    1    1    2    0    0 -0.48691522571E+00 -0.10034840020E+01  0.32670990445E+02  0.32812043266E+02  0.28271010000E+01 0. -1.
        -31    1    1    2    0    0  0.48691522571E+00  0.10034840020E+01  0.40900138830E+02  0.41012899470E+02  0.28271010000E+01 0.  1.
<mgrwt>
<rscale>  0 0.61164620E+01</rscale>
<asrwt>0</asrwt>
<pdfrwt beam="1">  1        1 0.61043628E+00 0.61164620E+01</pdfrwt>
<pdfrwt beam="2">  1       -1 0.27012489E+00 0.61164620E+01</pdfrwt>
<totfact> 0.34652893E-02</totfact>
</mgrwt>
</event>
<event>
 4    1  0.4231559E-004  0.6053529E+01  0.7818608E-02  0.2408508E+00
         -1   -1    0    0    0  501 -0.00000000000E+00  0.00000000000E+00  0.53108075963E+02  0.53108076203E+02  0.50400000000E-02 0.  1.
          1   -1    0    0  501    0  0.00000000000E+00 -0.00000000000E+00 -0.17246598906E+00  0.17253961569E+00  0.50400000000E-02 0. -1.
         31    1    1    2    0    0 -0.77678284612E+00  0.59533829105E+00  0.30510646305E+02  0.30656970778E+02  0.28271010000E+01 0.  1.
        -31    1    1    2    0    0  0.77678284612E+00 -0.59533829105E+00  0.22424963670E+02  0.22623645041E+02  0.28271010000E+01 0. -1.
<mgrwt>
<rscale>  0 0.60535294E+01</rscale>
<asrwt>0</asrwt>
<pdfrwt beam="2">  1        1 0.36661924E+00 0.60535294E+01</pdfrwt>
<pdfrwt beam="1">  1       -1 0.44056141E+00 0.60535294E+01</pdfrwt>
<totfact> 0.35891654E-02</totfact>
</mgrwt>
</event>
<event>
 4    1  0.4231559E-004  0.5864750E+01  0.7818608E-02  0.2433366E+00
          1   -1    0    0  501    0  0.00000000000E+00  0.00000000000E+00  0.35065339456E+02  0.35065339818E+02  0.50400000000E-02 0.  1.
         -1   -1    0    0    0  501 -0.00000000000E+00 -0.00000000000E+00 -0.24519664095E+00  0.24524843391E+00  0.50400000000E-02 0. -1.
         31    1    1    2    0    0  0.52211168833E+00 -0.21711959542E+00  0.20633220376E+02  0.20833675256E+02  0.28271010000E+01 0.  1.
        -31    1    1    2    0    0 -0.52211168833E+00  0.21711959542E+00  0.14186922439E+02  0.14476912995E+02  0.28271010000E+01 0. -1.
<mgrwt>
<rscale>  0 0.58647504E+01</rscale>
<asrwt>0</asrwt>
<pdfrwt beam="1">  1        1 0.29197265E+00 0.58647504E+01</pdfrwt>
<pdfrwt beam="2">  1       -1 0.51923179E+00 0.58647504E+01</pdfrwt>
<totfact> 0.20370381E-02</totfact>
</mgrwt>
</event>
<event>
 4    1  0.4231559E-004  0.6295589E+01  0.7818608E-02  0.2378470E+00
          1   -1    0    0  501    0  0.00000000000E+00  0.00000000000E+00  0.56252789711E+02  0.56252789937E+02  0.50400000000E-02 0.  1.
         -1   -1    0    0    0  501 -0.00000000000E+00 -0.00000000000E+00 -0.17610805551E+00  0.17618016011E+00  0.50400000000E-02 0. -1.
         31    1    1    2    0    0 -0.19232019798E+00 -0.93827363161E+00  0.36996062301E+02  0.37116283089E+02  0.28271010000E+01 0.  1.
        -31    1    1    2    0    0  0.19232019798E+00  0.93827363161E+00  0.19080619354E+02  0.19312687008E+02  0.28271010000E+01 0. -1.
<mgrwt>
<rscale>  0 0.62955890E+01</rscale>
<asrwt>0</asrwt>
<pdfrwt beam="1">  1        1 0.46659421E+00 0.62955890E+01</pdfrwt>
<pdfrwt beam="2">  1       -1 0.37440167E+00 0.62955890E+01</pdfrwt>
<totfact> 0.37240404E-02</totfact>
</mgrwt>
</event>
<event>
 4    1  0.4231559E-004  0.5765688E+01  0.7818608E-02  0.2446955E+00
         -1   -1    0    0    0  501 -0.00000000000E+00  0.00000000000E+00  0.31038426056E+02  0.31038426465E+02  0.50400000000E-02 0. -1.
          1   -1    0    0  501    0  0.00000000000E+00 -0.00000000000E+00 -0.26773399080E+00  0.26778142473E+00  0.50400000000E-02 0.  1.
         31    1    1    2    0    0 -0.14412601220E+00 -0.54119451880E+00  0.15016016091E+02  0.15290091665E+02  0.28271010000E+01 0.  1.
        -31    1    1    2    0    0  0.14412601220E+00  0.54119451880E+00  0.15754675975E+02  0.16016116225E+02  0.28271010000E+01 0. -1.
<mgrwt>
<rscale>  0 0.57656884E+01</rscale>
<asrwt>0</asrwt>
<pdfrwt beam="2">  1        1 0.56602945E+00 0.57656884E+01</pdfrwt>
<pdfrwt beam="1">  1       -1 0.25886163E+00 0.57656884E+01</pdfrwt>
<totfact> 0.65696675E-02</totfact>
</mgrwt>
</event>
<event>
 4    1  0.4231559E-004  0.5739580E+01  0.7818608E-02  0.2450602E+00
         -1   -1    0    0    0  501 -0.00000000000E+00  0.00000000000E+00  0.46442524281E+02  0.46442524555E+02  0.50400000000E-02 0.  1.
          1   -1    0    0  501    0  0.00000000000E+00 -0.00000000000E+00 -0.17729484227E+00  0.17736646441E+00  0.50400000000E-02 0. -1.
         31    1    1    2    0    0 -0.16882658882E+00  0.40155781810E+00  0.21254839621E+02  0.21446455616E+02  0.28271010000E+01 0. -1.
        -31    1    1    2    0    0  0.16882658882E+00 -0.40155781810E+00  0.25010389818E+02  0.25173435403E+02  0.28271010000E+01 0.  1.
<mgrwt>
<rscale>  0 0.57395804E+01</rscale>
<asrwt>0</asrwt>
<pdfrwt beam="2">  1        1 0.37666581E+00 0.57395804E+01</pdfrwt>
<pdfrwt beam="1">  1       -1 0.38548588E+00 0.57395804E+01</pdfrwt>
<totfact> 0.73341700E-02</totfact>
</mgrwt>
</event>
<event>
 4    1  0.4231559E-004  0.5862174E+01  0.7818608E-02  0.2433714E+00
         -1   -1    0    0    0  501 -0.00000000000E+00  0.00000000000E+00  0.41549193357E+02  0.41549193663E+02  0.50400000000E-02 0.  1.
          1   -1    0    0  501    0  0.00000000000E+00 -0.00000000000E+00 -0.20674248942E+00  0.20680391324E+00  0.50400000000E-02 0. -1.
         31    1    1    2    0    0  0.32747999757E+00 -0.68023432748E+00  0.19462199719E+02  0.19680947128E+02  0.28271010000E+01 0. -1.
        -31    1    1    2    0    0 -0.32747999757E+00  0.68023432748E+00  0.21880251149E+02  0.22075050448E+02  0.28271010000E+01 0. -1.
<mgrwt>
<rscale>  0 0.58621745E+01</rscale>
<asrwt>0</asrwt>
<pdfrwt beam="2">  1        1 0.43869813E+00 0.58621745E+01</pdfrwt>
<pdfrwt beam="1">  1       -1 0.34526780E+00 0.58621745E+01</pdfrwt>
<totfact> 0.72522044E-02</totfact>
</mgrwt>
</event>
<event>
 4    1  0.4231559E-004  0.6032071E+01  0.7818608E-02  0.2411268E+00
         -1   -1    0    0    0  501 -0.00000000000E+00  0.00000000000E+00  0.40084875413E+02  0.40084875730E+02  0.50400000000E-02 0. -1.
          1   -1    0    0  501    0  0.00000000000E+00 -0.00000000000E+00 -0.22690193257E+00  0.22695790051E+00  0.50400000000E-02 0.  1.
         31    1    1    2    0    0 -0.92266600821E+00 -0.40832420950E+00  0.17969981096E+02  0.18218967091E+02  0.28271010000E+01 0.  1.
        -31    1    1    2    0    0  0.92266600821E+00  0.40832420950E+00  0.21887992385E+02  0.22092866540E+02  0.28271010000E+01 0. -1.
<mgrwt>
<rscale>  0 0.60320710E+01</rscale>
<asrwt>0</asrwt>
<pdfrwt beam="2">  1        1 0.48113561E+00 0.60320710E+01</pdfrwt>
<pdfrwt beam="1">  1       -1 0.33332645E+00 0.60320710E+01</pdfrwt>
<totfact> 0.56944774E-02</totfact>
</mgrwt>
</event>
<event>
 4    1  0.4231559E-004  0.6805854E+01  0.7818608E-02  0.2321023E+00
          1   -1    0    0  501    0  0.00000000000E+00  0.00000000000E+00  0.46466060953E+02  0.46466061226E+02  0.50400000000E-02 0. -1.
         -1   -1    0    0    0  501 -0.00000000000E+00 -0.00000000000E+00 -0.24918652339E+00  0.24923748722E+00  0.50400000000E-02 0.  1.
         31    1    1    2    0    0  0.13094307263E+01  0.86442815030E+00  0.15826241203E+02  0.16153150019E+02  0.28271010000E+01 0.  1.
        -31    1    1    2    0    0 -0.13094307263E+01 -0.86442815030E+00  0.30390633227E+02  0.30562148695E+02  0.28271010000E+01 0. -1.
<mgrwt>
<rscale>  0 0.68058542E+01</rscale>
<asrwt>0</asrwt>
<pdfrwt beam="1">  1        1 0.38627477E+00 0.68058542E+01</pdfrwt>
<pdfrwt beam="2">  1       -1 0.52853448E+00 0.68058542E+01</pdfrwt>
<totfact> 0.75644708E-03</totfact>
</mgrwt>
</event>
<event>
 4    1  0.4231559E-004  0.6302482E+01  0.7818608E-02  0.2377643E+00
          1   -1    0    0  501    0  0.00000000000E+00  0.00000000000E+00  0.47064560890E+02  0.47064561159E+02  0.50400000000E-02 0. -1.
         -1   -1    0    0    0  501 -0.00000000000E+00 -0.00000000000E+00 -0.21096322752E+00  0.21102342279E+00  0.50400000000E-02 0.  1.
         31    1    1    2    0    0 -0.36444683476E+00  0.92047390892E+00  0.30767645788E+02  0.30913114063E+02  0.28271010000E+01 0. -1.
        -31    1    1    2    0    0  0.36444683476E+00 -0.92047390892E+00  0.16085951874E+02  0.16362470519E+02  0.28271010000E+01 0.  1.
<mgrwt>
<rscale>  0 0.63024823E+01</rscale>
<asrwt>0</asrwt>
<pdfrwt beam="1">  1        1 0.39090761E+00 0.63024823E+01</pdfrwt>
<pdfrwt beam="2">  1       -1 0.44787161E+00 0.63024823E+01</pdfrwt>
<totfact> 0.25757092E-02</totfact>
</mgrwt>
</event>
<event>
 4    1  0.4231559E-004  0.5957796E+01  0.7818608E-02  0.2420949E+00
         -1   -1    0    0    0  501 -0.00000000000E+00  0.00000000000E+00  0.33358546175E+02  0.33358546555E+02  0.50400000000E-02 0.  1.
          1   -1    0    0  501    0  0.00000000000E+00 -0.00000000000E+00 -0.26598949917E+00  0.26603724414E+00  0.50400000000E-02 0. -1.
         31    1    1    2    0    0  0.44934040580E+00  0.82098192739E+00  0.16131012153E+02  0.16403596290E+02  0.28271010000E+01 0. -1.
        -31    1    1    2    0    0 -0.44934040580E+00 -0.82098192739E+00  0.16961544523E+02  0.17220987509E+02  0.28271010000E+01 0.  1.
<mgrwt>
<rscale>  0 0.59577956E+01</rscale>
<asrwt>0</asrwt>
<pdfrwt beam="2">  1        1 0.56270587E+00 0.59577956E+01</pdfrwt>
<pdfrwt beam="1">  1       -1 0.27803158E+00 0.59577956E+01</pdfrwt>
<totfact> 0.52500393E-02</totfact>
</mgrwt>
</event>
<event>
 4    1  0.4231559E-004  0.5926718E+01  0.7818608E-02  0.2425060E+00
          1   -1    0    0  501    0  0.00000000000E+00  0.00000000000E+00  0.84761114697E+02  0.84761114847E+02  0.50400000000E-02 0.  1.
         -1   -1    0    0    0  501 -0.00000000000E+00 -0.00000000000E+00 -0.10354142842E+00  0.10366401979E+00  0.50400000000E-02 0. -1.
         31    1    1    2    0    0 -0.56048254768E+00  0.58084394388E+00  0.47637931445E+02  0.47728571451E+02  0.28271010000E+01 0. -1.
        -31    1    1    2    0    0  0.56048254768E+00 -0.58084394388E+00  0.37019641823E+02  0.37136207415E+02  0.28271010000E+01 0. -1.
<mgrwt>
<rscale>  0 0.59267175E+01</rscale>
<asrwt>0</asrwt>
<pdfrwt beam="1">  1        1 0.70172137E+00 0.59267175E+01</pdfrwt>
<pdfrwt beam="2">  1       -1 0.22063181E+00 0.59267175E+01</pdfrwt>
<totfact> 0.22451938E-02</totfact>
</mgrwt>
</event>
<event>
 4    1  0.4231559E-004  0.6241686E+01  0.7818608E-02  0.2384991E+00
          1   -1    0    0  501    0  0.00000000000E+00  0.00000000000E+00  0.35761479301E+02  0.35761479656E+02  0.50400000000E-02 0. -1.
         -1   -1    0    0    0  501 -0.00000000000E+00 -0.00000000000E+00 -0.27232696984E+00  0.27237360390E+00  0.50400000000E-02 0.  1.
         31    1    1    2    0    0 -0.69056490944E+00  0.11137831494E+01  0.18740649093E+02  0.18997942554E+02  0.28271010000E+01 0.  1.
        -31    1    1    2    0    0  0.69056490944E+00 -0.11137831494E+01  0.16748503238E+02  0.17035910706E+02  0.28271010000E+01 0. -1.
<mgrwt>
<rscale>  0 0.62416863E+01</rscale>
<asrwt>0</asrwt>
<pdfrwt beam="1">  1        1 0.29795311E+00 0.62416863E+01</pdfrwt>
<pdfrwt beam="2">  1       -1 0.57631554E+00 0.62416863E+01</pdfrwt>
<totfact> 0.83675377E-03</totfact>
</mgrwt>
</event>
<event>
 4    1  0.4231559E-004  0.5945439E+01  0.7818608E-02  0.2422579E+00
          1   -1    0    0  501    0  0.00000000000E+00  0.00000000000E+00  0.53656539790E+02  0.53656540027E+02  0.50400000000E-02 0.  1.
         -1   -1    0    0    0  501 -0.00000000000E+00 -0.00000000000E+00 -0.16465803278E+00  0.16473514913E+00  0.50400000000E-02 0. -1.
         31    1    1    2    0    0 -0.70913267870E+00  0.42041245312E+00  0.23069386401E+02  0.23256584116E+02  0.28271010000E+01 0. -1.
        -31    1    1    2    0    0  0.70913267870E+00 -0.42041245312E+00  0.30422495357E+02  0.30564691060E+02  0.28271010000E+01 0.  1.
<mgrwt>
<rscale>  0 0.59454392E+01</rscale>
<asrwt>0</asrwt>
<pdfrwt beam="1">  1        1 0.44503196E+00 0.59454392E+01</pdfrwt>
<pdfrwt beam="2">  1       -1 0.35009110E+00 0.59454392E+01</pdfrwt>
<totfact> 0.64001980E-02</totfact>
</mgrwt>
</event>
<event>
 4    1  0.4231559E-004  0.6991333E+01  0.7818608E-02  0.2301868E+00
         -1   -1    0    0    0  501 -0.00000000000E+00  0.00000000000E+00  0.56354866429E+02  0.56354866655E+02  0.50400000000E-02 0. -1.
          1   -1    0    0  501    0  0.00000000000E+00 -0.00000000000E+00 -0.21680505133E+00  0.21686362508E+00  0.50400000000E-02 0.  1.
         31    1    1    2    0    0  0.88737670622E-01 -0.43579545743E+00  0.11826294438E+02  0.12167642839E+02  0.28271010000E+01 0.  1.
        -31    1    1    2    0    0 -0.88737670622E-01  0.43579545743E+00  0.44311766940E+02  0.44404087441E+02  0.28271010000E+01 0. -1.
<mgrwt>
<rscale>  0 0.69913326E+01</rscale>
<asrwt>0</asrwt>
<pdfrwt beam="2">  1        1 0.46056150E+00 0.69913326E+01</pdfrwt>
<pdfrwt beam="1">  1       -1 0.46777465E+00 0.69913326E+01</pdfrwt>
<totfact> 0.98326064E-03</totfact>
</mgrwt>
</event>
<event>
 4    1  0.4231559E-004  0.6507347E+01  0.7818608E-02  0.2353725E+00
         -1   -1    0    0    0  501 -0.00000000000E+00  0.00000000000E+00  0.37273994579E+02  0.37273994919E+02  0.50400000000E-02 0.  1.
          1   -1    0    0  501    0  0.00000000000E+00 -0.00000000000E+00 -0.28399281277E+00  0.28403753151E+00  0.50400000000E-02 0. -1.
         31    1    1    2    0    0  0.49521717423E-01 -0.14053087022E+01  0.13963081399E+02  0.14315637854E+02  0.28271010000E+01 0. -1.
        -31    1    1    2    0    0 -0.49521717423E-01  0.14053087022E+01  0.23026920367E+02  0.23242394597E+02  0.28271010000E+01 0.  1.
<mgrwt>
<rscale>  0 0.65073475E+01</rscale>
<asrwt>0</asrwt>
<pdfrwt beam="2">  1        1 0.60099703E+00 0.65073475E+01</pdfrwt>
<pdfrwt beam="1">  1       -1 0.31055609E+00 0.65073475E+01</pdfrwt>
<totfact> 0.22289503E-02</totfact>
</mgrwt>
</event>
<event>
 4    1  0.4231559E-004  0.6220707E+01  0.7818608E-02  0.2387554E+00
          1   -1    0    0  501    0  0.00000000000E+00  0.00000000000E+00  0.92284146701E+02  0.92284146838E+02  0.50400000000E-02 0.  1.
         -1   -1    0    0    0  501 -0.00000000000E+00 -0.00000000000E+00 -0.10477092543E+00  0.10489207985E+00  0.50400000000E-02 0. -1.
         31    1    1    2    0    0  0.60177546425E+00  0.50398600375E+00  0.30757977122E+02  0.30897601724E+02  0.28271010000E+01 0.  1.
        -31    1    1    2    0    0 -0.60177546425E+00 -0.50398600375E+00  0.61421398654E+02  0.61491437194E+02  0.28271010000E+01 0.  1.
<mgrwt>
<rscale>  0 0.62207069E+01</rscale>
<asrwt>0</asrwt>
<pdfrwt beam="1">  1        1 0.76393722E+00 0.62207069E+01</pdfrwt>
<pdfrwt beam="2">  1       -1 0.22326785E+00 0.62207069E+01</pdfrwt>
<totfact> 0.86665428E-03</totfact>
</mgrwt>
</event>
<event>
 4    1  0.4231559E-004  0.6408060E+01  0.7818608E-02  0.2365158E+00
         -1   -1    0    0    0  501 -0.00000000000E+00  0.00000000000E+00  0.67067379342E+02  0.67067379531E+02  0.50400000000E-02 0.  1.
          1   -1    0    0  501    0  0.00000000000E+00 -0.00000000000E+00 -0.15302539073E+00  0.15310836623E+00  0.50400000000E-02 0. -1.
         31    1    1    2    0    0 -0.35693220739E+00  0.11217431907E+01  0.23574298946E+02  0.23772374287E+02  0.28271010000E+01 0. -1.
        -31    1    1    2    0    0  0.35693220739E+00 -0.11217431907E+01  0.43340055005E+02  0.43448113610E+02  0.28271010000E+01 0.  1.
<mgrwt>
<rscale>  0 0.64080596E+01</rscale>
<asrwt>0</asrwt>
<pdfrwt beam="2">  1        1 0.32562564E+00 0.64080596E+01</pdfrwt>
<pdfrwt beam="1">  1       -1 0.55582603E+00 0.64080596E+01</pdfrwt>
<totfact> 0.86715799E-03</totfact>
</mgrwt>
</event>
<event>
 4    1  0.4231559E-004  0.6144615E+01  0.7818608E-02  0.2396973E+00
          1   -1    0    0  501    0  0.00000000000E+00  0.00000000000E+00  0.41298958574E+02  0.41298958882E+02  0.50400000000E-02 0.  1.
         -1   -1    0    0    0  501 -0.00000000000E+00 -0.00000000000E+00 -0.22852667643E+00  0.22858224656E+00  0.50400000000E-02 0. -1.
         31    1    1    2    0    0 -0.12046757819E+00  0.34472894604E+00  0.28280027183E+02  0.28423331754E+02  0.28271010000E+01 0.  1.
        -31    1    1    2    0    0  0.12046757819E+00 -0.34472894604E+00  0.12790404715E+02  0.13104209374E+02  0.28271010000E+01 0. -1.
<mgrwt>
<rscale>  0 0.61446152E+01</rscale>
<asrwt>0</asrwt>
<pdfrwt beam="1">  1        1 0.34337877E+00 0.61446152E+01</pdfrwt>
<pdfrwt beam="2">  1       -1 0.48464120E+00 0.61446152E+01</pdfrwt>
<totfact> 0.22309080E-02</totfact>
</mgrwt>
</event>
<event>
 4    1  0.4231559E-004  0.7232713E+01  0.7818608E-02  0.2278153E+00
         -1   -1    0    0    0  501 -0.00000000000E+00  0.00000000000E+00  0.10208607890E+03  0.10208607902E+03  0.50400000000E-02 0.  1.
          1   -1    0    0  501    0  0.00000000000E+00 -0.00000000000E+00 -0.12805822482E+00  0.12815736633E+00  0.50400000000E-02 0. -1.
         31    1    1    2    0    0 -0.21768361127E+01  0.23305008389E-01  0.42661671297E+02  0.42810627846E+02  0.28271010000E+01 0. -1.
        -31    1    1    2    0    0  0.21768361127E+01 -0.23305008389E-01  0.59296349375E+02  0.59403608543E+02  0.28271010000E+01 0.  1.
<mgrwt>
<rscale>  0 0.72327132E+01</rscale>
<asrwt>0</asrwt>
<pdfrwt beam="2">  1        1 0.27280874E+00 0.72327132E+01</pdfrwt>
<pdfrwt beam="1">  1       -1 0.84517882E+00 0.72327132E+01</pdfrwt>
<totfact> 0.13604257E-03</totfact>
</mgrwt>
</event>
<event>
 4    1  0.4231559E-004  0.5816908E+01  0.7818608E-02  0.2439880E+00
         -1   -1    0    0    0  501 -0.00000000000E+00  0.00000000000E+00  0.43810168352E+02  0.43810168642E+02  0.50400000000E-02 0.  1.
          1   -1    0    0  501    0  0.00000000000E+00 -0.00000000000E+00 -0.19305226682E+00  0.19311804505E+00  0.50400000000E-02 0. -1.
         31    1    1    2    0    0  0.62550365060E+00  0.21805680534E+00  0.20547215686E+02  0.20751370463E+02  0.28271010000E+01 0.  1.
        -31    1    1    2    0    0 -0.62550365060E+00 -0.21805680534E+00  0.23069900399E+02  0.23251916224E+02  0.28271010000E+01 0.  1.
<mgrwt>
<rscale>  0 0.58169084E+01</rscale>
<asrwt>0</asrwt>
<pdfrwt beam="2">  1        1 0.40988923E+00 0.58169084E+01</pdfrwt>
<pdfrwt beam="1">  1       -1 0.36384996E+00 0.58169084E+01</pdfrwt>
<totfact> 0.73395532E-02</totfact>
</mgrwt>
</event>
<event>
 4    1  0.4231559E-004  0.5861111E+01  0.7818608E-02  0.2433858E+00
          1   -1    0    0  501    0  0.00000000000E+00  0.00000000000E+00  0.58731801205E+02  0.58731801421E+02  0.50400000000E-02 0. -1.
         -1   -1    0    0    0  501 -0.00000000000E+00 -0.00000000000E+00 -0.14618303182E+00  0.14626988888E+00  0.50400000000E-02 0.  1.
         31    1    1    2    0    0 -0.59527584587E+00  0.99329022768E-01  0.34125505436E+02  0.34247727529E+02  0.28271010000E+01 0. -1.
        -31    1    1    2    0    0  0.59527584587E+00 -0.99329022768E-01  0.24460112737E+02  0.24630343781E+02  0.28271010000E+01 0.  1.
<mgrwt>
<rscale>  0 0.58611112E+01</rscale>
<asrwt>0</asrwt>
<pdfrwt beam="1">  1        1 0.48684509E+00 0.58611112E+01</pdfrwt>
<pdfrwt beam="2">  1       -1 0.31100940E+00 0.58611112E+01</pdfrwt>
<totfact> 0.72716567E-02</totfact>
</mgrwt>
</event>
<event>
 4    1  0.4231559E-004  0.5861220E+01  0.7818608E-02  0.2433844E+00
          1   -1    0    0  501    0  0.00000000000E+00  0.00000000000E+00  0.59346522128E+02  0.59346522342E+02  0.50400000000E-02 0. -1.
         -1   -1    0    0    0  501 -0.00000000000E+00 -0.00000000000E+00 -0.14467332391E+00  0.14476108680E+00  0.50400000000E-02 0.  1.
         31    1    1    2    0    0 -0.48911497891E+00  0.19439070282E+00  0.35333232361E+02  0.35450061076E+02  0.28271010000E+01 0. -1.
        -31    1    1    2    0    0  0.48911497891E+00 -0.19439070282E+00  0.23868616444E+02  0.24041222353E+02  0.28271010000E+01 0. -1.
<mgrwt>
<rscale>  0 0.58612202E+01</rscale>
<asrwt>0</asrwt>
<pdfrwt beam="1">  1        1 0.49191556E+00 0.58612202E+01</pdfrwt>
<pdfrwt beam="2">  1       -1 0.30781509E+00 0.58612202E+01</pdfrwt>
<totfact> 0.72233263E-02</totfact>
</mgrwt>
</event>
<event>
 4    1  0.4231559E-004  0.7007041E+01  0.7818608E-02  0.2300285E+00
          1   -1    0    0  501    0  0.00000000000E+00  0.00000000000E+00  0.83567801720E+02  0.83567801872E+02  0.50400000000E-02 0.  1.
         -1   -1    0    0    0  501 -0.00000000000E+00 -0.00000000000E+00 -0.14683919734E+00  0.14692566650E+00  0.50400000000E-02 0. -1.
         31    1    1    2    0    0 -0.52731146685E-01 -0.25353159436E+00  0.66238979180E+02  0.66299788248E+02  0.28271010000E+01 0.  1.
        -31    1    1    2    0    0  0.52731146685E-01  0.25353159436E+00  0.17181983342E+02  0.17414939290E+02  0.28271010000E+01 0. -1.
<mgrwt>
<rscale>  0 0.70070406E+01</rscale>
<asrwt>0</asrwt>
<pdfrwt beam="1">  1        1 0.69221194E+00 0.70070406E+01</pdfrwt>
<pdfrwt beam="2">  1       -1 0.31263282E+00 0.70070406E+01</pdfrwt>
<totfact> 0.71342722E-03</totfact>
</mgrwt>
</event>
<event>
 4    1  0.4231559E-004  0.6588506E+01  0.7818608E-02  0.2344592E+00
          1   -1    0    0  501    0  0.00000000000E+00  0.00000000000E+00  0.73858723609E+02  0.73858723780E+02  0.50400000000E-02 0.  1.
         -1   -1    0    0    0  501 -0.00000000000E+00 -0.00000000000E+00 -0.14688715994E+00  0.14697360088E+00  0.50400000000E-02 0. -1.
         31    1    1    2    0    0  0.49691100963E+00 -0.14092853691E+01  0.45747364950E+02  0.45858989366E+02  0.28271010000E+01 0.  1.
        -31    1    1    2    0    0 -0.49691100963E+00  0.14092853691E+01  0.27964471499E+02  0.28146708015E+02  0.28271010000E+01 0. -1.
<mgrwt>
<rscale>  0 0.65885061E+01</rscale>
<asrwt>0</asrwt>
<pdfrwt beam="1">  1        1 0.61193089E+00 0.65885061E+01</pdfrwt>
<pdfrwt beam="2">  1       -1 0.31266258E+00 0.65885061E+01</pdfrwt>
<totfact> 0.19137954E-02</totfact>
</mgrwt>
</event>
<event>
 4    1  0.4231559E-004  0.7789138E+01  0.7818608E-02  0.2228098E+00
         -1   -1    0    0    0  501 -0.00000000000E+00  0.00000000000E+00  0.60567423828E+02  0.60567424038E+02  0.50400000000E-02 0.  1.
          1   -1    0    0  501    0  0.00000000000E+00 -0.00000000000E+00 -0.25040058672E+00  0.25045130351E+00  0.50400000000E-02 0. -1.
         31    1    1    2    0    0  0.17297879517E+01  0.10241761246E+01  0.43981303840E+02  0.44117895356E+02  0.28271010000E+01 0.  1.
        -31    1    1    2    0    0 -0.17297879517E+01 -0.10241761246E+01  0.16335719401E+02  0.16699979985E+02  0.28271010000E+01 0. -1.
<mgrwt>
<rscale>  0 0.77891378E+01</rscale>
<asrwt>0</asrwt>
<pdfrwt beam="2">  1        1 0.53175882E+00 0.77891378E+01</pdfrwt>
<pdfrwt beam="1">  1       -1 0.50288475E+00 0.77891378E+01</pdfrwt>
<totfact> 0.27544464E-03</totfact>
</mgrwt>
</event>
<event>
 4    1  0.4231559E-004  0.6124942E+01  0.7818608E-02  0.2399440E+00
          1   -1    0    0  501    0  0.00000000000E+00  0.00000000000E+00  0.46793434121E+02  0.46793434393E+02  0.50400000000E-02 0. -1.
         -1   -1    0    0    0  501 -0.00000000000E+00 -0.00000000000E+00 -0.20039634805E+00  0.20045971643E+00  0.50400000000E-02 0.  1.
         31    1    1    2    0    0 -0.30173875604E+00 -0.46671699730E+00  0.31260301257E+02  0.31392798630E+02  0.28271010000E+01 0. -1.
        -31    1    1    2    0    0  0.30173875604E+00  0.46671699730E+00  0.15332736516E+02  0.15601095479E+02  0.28271010000E+01 0.  1.
<mgrwt>
<rscale>  0 0.61249420E+01</rscale>
<asrwt>0</asrwt>
<pdfrwt beam="1">  1        1 0.38857840E+00 0.61249420E+01</pdfrwt>
<pdfrwt beam="2">  1       -1 0.42552952E+00 0.61249420E+01</pdfrwt>
<totfact> 0.36878167E-02</totfact>
</mgrwt>
</event>
<event>
 4    1  0.4231559E-004  0.6620543E+01  0.7818608E-02  0.2341038E+00
          1   -1    0    0  501    0  0.00000000000E+00  0.00000000000E+00  0.63820829606E+02  0.63820829805E+02  0.50400000000E-02 0. -1.
         -1   -1    0    0    0  501 -0.00000000000E+00 -0.00000000000E+00 -0.17166062790E+00  0.17173459981E+00  0.50400000000E-02 0.  1.
         31    1    1    2    0    0 -0.76376136238E+00 -0.28675712929E+00  0.17166260264E+02  0.17416617140E+02  0.28271010000E+01 0. -1.
        -31    1    1    2    0    0  0.76376136238E+00  0.28675712929E+00  0.46482908714E+02  0.46575947266E+02  0.28271010000E+01 0. -1.
<mgrwt>
<rscale>  0 0.66205428E+01</rscale>
<asrwt>0</asrwt>
<pdfrwt beam="1">  1        1 0.52913530E+00 0.66205428E+01</pdfrwt>
<pdfrwt beam="2">  1       -1 0.36511094E+00 0.66205428E+01</pdfrwt>
<totfact> 0.22796074E-02</totfact>
</mgrwt>
</event>
<event>
 4    1  0.4231559E-004  0.5974995E+01  0.7818608E-02  0.2418689E+00
         -1   -1    0    0    0  501 -0.00000000000E+00  0.00000000000E+00  0.37277863127E+02  0.37277863467E+02  0.50400000000E-02 0. -1.
          1   -1    0    0  501    0  0.00000000000E+00 -0.00000000000E+00 -0.23939515919E+00  0.23944820701E+00  0.50400000000E-02 0.  1.
         31    1    1    2    0    0  0.32232673636E+00  0.61332246623E+00  0.14295048212E+02  0.14588384503E+02  0.28271010000E+01 0.  1.
        -31    1    1    2    0    0 -0.32232673636E+00 -0.61332246623E+00  0.22743419755E+02  0.22928927171E+02  0.28271010000E+01 0. -1.
<mgrwt>
<rscale>  0 0.59749951E+01</rscale>
<asrwt>0</asrwt>
<pdfrwt beam="2">  1        1 0.50723657E+00 0.59749951E+01</pdfrwt>
<pdfrwt beam="1">  1       -1 0.31021938E+00 0.59749951E+01</pdfrwt>
<totfact> 0.60150256E-02</totfact>
</mgrwt>
</event>
<event>
 4    1  0.4231559E-004  0.6967375E+01  0.7818608E-02  0.2304295E+00
          1   -1    0    0  501    0  0.00000000000E+00  0.00000000000E+00  0.33094942830E+02  0.33094943214E+02  0.50400000000E-02 0. -1.
         -1   -1    0    0    0  501 -0.00000000000E+00 -0.00000000000E+00 -0.36668717448E+00  0.36672180945E+00  0.50400000000E-02 0.  1.
         31    1    1    2    0    0  0.21844255491E+00  0.14896143685E+01  0.97845205189E+01  0.10295436366E+02  0.28271010000E+01 0.  1.
        -31    1    1    2    0    0 -0.21844255491E+00 -0.14896143685E+01  0.22943735137E+02  0.23166228658E+02  0.28271010000E+01 0. -1.
<mgrwt>
<rscale>  0 0.69673745E+01</rscale>
<asrwt>0</asrwt>
<pdfrwt beam="1">  1        1 0.27668446E+00 0.69673745E+01</pdfrwt>
<pdfrwt beam="2">  1       -1 0.77331767E+00 0.69673745E+01</pdfrwt>
<totfact> 0.27312104E-03</totfact>
</mgrwt>
</event>
<event>
 4    1  0.4231559E-004  0.6165313E+01  0.7818608E-02  0.2394392E+00
         -1   -1    0    0    0  501 -0.00000000000E+00  0.00000000000E+00  0.40028397231E+02  0.40028397548E+02  0.50400000000E-02 0.  1.
          1   -1    0    0  501    0  0.00000000000E+00 -0.00000000000E+00 -0.23737366892E+00  0.23742716841E+00  0.50400000000E-02 0. -1.
         31    1    1    2    0    0 -0.63286548543E+00 -0.98035190713E+00  0.22413663943E+02  0.22621371311E+02  0.28271010000E+01 0.  1.
        -31    1    1    2    0    0  0.63286548543E+00  0.98035190713E+00  0.17377359619E+02  0.17644453405E+02  0.28271010000E+01 0.  1.
<mgrwt>
<rscale>  0 0.61653130E+01</rscale>
<asrwt>0</asrwt>
<pdfrwt beam="2">  1        1 0.50320022E+00 0.61653130E+01</pdfrwt>
<pdfrwt beam="1">  1       -1 0.33294601E+00 0.61653130E+01</pdfrwt>
<totfact> 0.46098574E-02</totfact>
</mgrwt>
</event>
<event>
 4    1  0.4231559E-004  0.6630074E+01  0.7818608E-02  0.2339986E+00
          1   -1    0    0  501    0  0.00000000000E+00  0.00000000000E+00  0.50481173556E+02  0.50481173808E+02  0.50400000000E-02 0.  1.
         -1   -1    0    0    0  501 -0.00000000000E+00 -0.00000000000E+00 -0.21766497715E+00  0.21772331955E+00  0.50400000000E-02 0. -1.
         31    1    1    2    0    0  0.57708902552E+00 -0.15668851634E+01  0.28626001432E+02  0.28813688048E+02  0.28271010000E+01 0. -1.
        -31    1    1    2    0    0 -0.57708902552E+00  0.15668851634E+01  0.21637507147E+02  0.21885209079E+02  0.28271010000E+01 0. -1.
<mgrwt>
<rscale>  0 0.66300735E+01</rscale>
<asrwt>0</asrwt>
<pdfrwt beam="1">  1        1 0.41921395E+00 0.66300735E+01</pdfrwt>
<pdfrwt beam="2">  1       -1 0.46217383E+00 0.66300735E+01</pdfrwt>
<totfact> 0.15889994E-02</totfact>
</mgrwt>
</event>
<event>
 4    1  0.4231559E-004  0.6040320E+01  0.7818608E-02  0.2410205E+00
         -1   -1    0    0    0  501 -0.00000000000E+00  0.00000000000E+00  0.29768754567E+02  0.29768754993E+02  0.50400000000E-02 0.  1.
          1   -1    0    0  501    0  0.00000000000E+00 -0.00000000000E+00 -0.30638628099E+00  0.30642773174E+00  0.50400000000E-02 0. -1.
         31    1    1    2    0    0  0.69562038875E+00 -0.53588123273E+00  0.17709531128E+02  0.17955251300E+02  0.28271010000E+01 0.  1.
        -31    1    1    2    0    0 -0.69562038875E+00  0.53588123273E+00  0.11752837158E+02  0.12119931425E+02  0.28271010000E+01 0. -1.
<mgrwt>
<rscale>  0 0.60403204E+01</rscale>
<asrwt>0</asrwt>
<pdfrwt beam="2">  1        1 0.64666424E+00 0.60403204E+01</pdfrwt>
<pdfrwt beam="1">  1       -1 0.24868265E+00 0.60403204E+01</pdfrwt>
<totfact> 0.30451676E-02</totfact>
</mgrwt>
</event>
<event>
 4    1  0.4231559E-004  0.7347511E+01  0.7818608E-02  0.2267323E+00
          1   -1    0    0  501    0  0.00000000000E+00  0.00000000000E+00  0.79118401086E+02  0.79118401246E+02  0.50400000000E-02 0.  1.
         -1   -1    0    0    0  501 -0.00000000000E+00 -0.00000000000E+00 -0.17054844007E+00  0.17062289416E+00  0.50400000000E-02 0. -1.
         31    1    1    2    0    0  0.11192648093E+01  0.16405325189E+01  0.25996155709E+02  0.26224734744E+02  0.28271010000E+01 0.  1.
        -31    1    1    2    0    0 -0.11192648093E+01 -0.16405325189E+01  0.52951696936E+02  0.53064289396E+02  0.28271010000E+01 0.  1.
<mgrwt>
<rscale>  0 0.73475106E+01</rscale>
<asrwt>0</asrwt>
<pdfrwt beam="1">  1        1 0.65561713E+00 0.73475106E+01</pdfrwt>
<pdfrwt beam="2">  1       -1 0.36293975E+00 0.73475106E+01</pdfrwt>
<totfact> 0.56951843E-03</totfact>
</mgrwt>
</event>
<event>
 4    1  0.4231559E-004  0.6174580E+01  0.7818608E-02  0.2393241E+00
          1   -1    0    0  501    0  0.00000000000E+00  0.00000000000E+00  0.46539482674E+02  0.46539482947E+02  0.50400000000E-02 0.  1.
         -1   -1    0    0    0  501 -0.00000000000E+00 -0.00000000000E+00 -0.20477026591E+00  0.20483228115E+00  0.50400000000E-02 0. -1.
         31    1    1    2    0    0 -0.72656843087E+00 -0.10039699784E+01  0.22752665532E+02  0.22961100720E+02  0.28271010000E+01 0. -1.
        -31    1    1    2    0    0  0.72656843087E+00  0.10039699784E+01  0.23582046876E+02  0.23783214508E+02  0.28271010000E+01 0. -1.
<mgrwt>
<rscale>  0 0.61745795E+01</rscale>
<asrwt>0</asrwt>
<pdfrwt beam="1">  1        1 0.38651470E+00 0.61745795E+01</pdfrwt>
<pdfrwt beam="2">  1       -1 0.43476356E+00 0.61745795E+01</pdfrwt>
<totfact> 0.32723061E-02</totfact>
</mgrwt>
</event>
<event>
 4    1  0.4231559E-004  0.6139942E+01  0.7818608E-02  0.2397558E+00
          1   -1    0    0  501    0  0.00000000000E+00  0.00000000000E+00  0.57989626754E+02  0.57989626973E+02  0.50400000000E-02 0.  1.
         -1   -1    0    0    0  501 -0.00000000000E+00 -0.00000000000E+00 -0.16248497397E+00  0.16256312117E+00  0.50400000000E-02 0. -1.
         31    1    1    2    0    0  0.90602696489E-01 -0.10207512476E+01  0.23059220471E+02  0.23254468189E+02  0.28271010000E+01 0. -1.
        -31    1    1    2    0    0 -0.90602696489E-01  0.10207512476E+01  0.34767921309E+02  0.34897721905E+02  0.28271010000E+01 0.  1.
<mgrwt>
<rscale>  0 0.61399419E+01</rscale>
<asrwt>0</asrwt>
<pdfrwt beam="1">  1        1 0.48084299E+00 0.61399419E+01</pdfrwt>
<pdfrwt beam="2">  1       -1 0.34556489E+00 0.61399419E+01</pdfrwt>
<totfact> 0.48359916E-02</totfact>
</mgrwt>
</event>
<event>
 4    1  0.4231559E-004  0.5814839E+01  0.7818608E-02  0.2440164E+00
          1   -1    0    0  501    0  0.00000000000E+00  0.00000000000E+00  0.72129057946E+02  0.72129058122E+02  0.50400000000E-02 0. -1.
         -1   -1    0    0    0  501 -0.00000000000E+00 -0.00000000000E+00 -0.11713958217E+00  0.11724795653E+00  0.50400000000E-02 0.  1.
         31    1    1    2    0    0  0.80498663841E-02  0.23926640998E+00  0.28115924495E+02  0.28258715886E+02  0.28271010000E+01 0.  1.
        -31    1    1    2    0    0 -0.80498663841E-02 -0.23926640998E+00  0.43895993868E+02  0.43987590192E+02  0.28271010000E+01 0. -1.
<mgrwt>
<rscale>  0 0.58148393E+01</rscale>
<asrwt>0</asrwt>
<pdfrwt beam="1">  1        1 0.59738301E+00 0.58148393E+01</pdfrwt>
<pdfrwt beam="2">  1       -1 0.24947495E+00 0.58148393E+01</pdfrwt>
<totfact> 0.53192616E-02</totfact>
</mgrwt>
</event>
<event>
 4    1  0.4231559E-004  0.7025998E+01  0.7818608E-02  0.2298381E+00
         -1   -1    0    0    0  501 -0.00000000000E+00  0.00000000000E+00  0.40361666123E+02  0.40361666437E+02  0.50400000000E-02 0. -1.
          1   -1    0    0  501    0  0.00000000000E+00 -0.00000000000E+00 -0.30574333574E+00  0.30578487365E+00  0.50400000000E-02 0.  1.
         31    1    1    2    0    0 -0.11901772742E+01  0.14941733338E+01  0.15186690983E+02  0.15565254863E+02  0.28271010000E+01 0. -1.
        -31    1    1    2    0    0  0.11901772742E+01 -0.14941733338E+01  0.24869231804E+02  0.25102196448E+02  0.28271010000E+01 0.  1.
<mgrwt>
<rscale>  0 0.70259979E+01</rscale>
<asrwt>0</asrwt>
<pdfrwt beam="2">  1        1 0.64704761E+00 0.70259979E+01</pdfrwt>
<pdfrwt beam="1">  1       -1 0.33626694E+00 0.70259979E+01</pdfrwt>
<totfact> 0.91725277E-03</totfact>
</mgrwt>
</event>
<event>
 4    1  0.4231559E-004  0.8497254E+01  0.7818608E-02  0.2172176E+00
          1   -1    0    0  501    0  0.00000000000E+00  0.00000000000E+00  0.49061652510E+02  0.49061652769E+02  0.50400000000E-02 0.  1.
         -1   -1    0    0    0  501 -0.00000000000E+00 -0.00000000000E+00 -0.36790382869E+00  0.36793834913E+00  0.50400000000E-02 0. -1.
         31    1    1    2    0    0 -0.56854075438E+00 -0.81534380408E+00  0.41866280937E+02  0.41973396380E+02  0.28271010000E+01 0.  1.
        -31    1    1    2    0    0  0.56854075438E+00  0.81534380408E+00  0.68274677444E+01  0.74561947382E+01  0.28271010000E+01 0. -1.
<mgrwt>
<rscale>  0 0.84972535E+01</rscale>
<asrwt>0</asrwt>
<pdfrwt beam="1">  1        1 0.40871844E+00 0.84972535E+01</pdfrwt>
<pdfrwt beam="2">  1       -1 0.77864106E+00 0.84972535E+01</pdfrwt>
<totfact> 0.77242581E-04</totfact>
</mgrwt>
</event>
<event>
 4    1  0.4231559E-004  0.6054809E+01  0.7818608E-02  0.2408344E+00
          1   -1    0    0  501    0  0.00000000000E+00  0.00000000000E+00  0.60420338999E+02  0.60420339209E+02  0.50400000000E-02 0. -1.
         -1   -1    0    0    0  501 -0.00000000000E+00 -0.00000000000E+00 -0.15164820680E+00  0.15173193542E+00  0.50400000000E-02 0.  1.
         31    1    1    2    0    0  0.27137526554E+00 -0.10149707106E+01  0.27509032923E+02  0.27673872200E+02  0.28271010000E+01 0.  1.
        -31    1    1    2    0    0 -0.27137526554E+00  0.10149707106E+01  0.32759657869E+02  0.32898198945E+02  0.28271010000E+01 0. -1.
<mgrwt>
<rscale>  0 0.60548091E+01</rscale>
<asrwt>0</asrwt>
<pdfrwt beam="1">  1        1 0.50085226E+00 0.60548091E+01</pdfrwt>
<pdfrwt beam="2">  1       -1 0.32262324E+00 0.60548091E+01</pdfrwt>
<totfact> 0.54243618E-02</totfact>
</mgrwt>
</event>
<event>
 4    1  0.4231559E-004  0.6120064E+01  0.7818608E-02  0.2400054E+00
          1   -1    0    0  501    0  0.00000000000E+00  0.00000000000E+00  0.50297957798E+02  0.50297958050E+02  0.50400000000E-02 0. -1.
         -1   -1    0    0    0  501 -0.00000000000E+00 -0.00000000000E+00 -0.18613214708E+00  0.18620036997E+00  0.50400000000E-02 0.  1.
         31    1    1    2    0    0  0.22901789787E+00 -0.11122985526E+01  0.27412835674E+02  0.27581619188E+02  0.28271010000E+01 0.  1.
        -31    1    1    2    0    0 -0.22901789787E+00  0.11122985526E+01  0.22698989977E+02  0.22902539233E+02  0.28271010000E+01 0. -1.
<mgrwt>
<rscale>  0 0.61200638E+01</rscale>
<asrwt>0</asrwt>
<pdfrwt beam="1">  1        1 0.41743834E+00 0.61200638E+01</pdfrwt>
<pdfrwt beam="2">  1       -1 0.39547948E+00 0.61200638E+01</pdfrwt>
<totfact> 0.43900416E-02</totfact>
</mgrwt>
</event>
<event>
 4    1  0.4231559E-004  0.7137264E+01  0.7818608E-02  0.2287374E+00
         -1   -1    0    0    0  501 -0.00000000000E+00  0.00000000000E+00  0.63050709803E+02  0.63050710005E+02  0.50400000000E-02 0.  1.
          1   -1    0    0  501    0  0.00000000000E+00 -0.00000000000E+00 -0.20195074831E+00  0.20201362911E+00  0.50400000000E-02 0. -1.
         31    1    1    2    0    0 -0.14054472247E+01  0.11867511604E+01  0.21093129452E+02  0.21361092443E+02  0.28271010000E+01 0.  1.
        -31    1    1    2    0    0  0.14054472247E+01 -0.11867511604E+01  0.41755629603E+02  0.41891631191E+02  0.28271010000E+01 0. -1.
<mgrwt>
<rscale>  0 0.71372636E+01</rscale>
<asrwt>0</asrwt>
<pdfrwt beam="2">  1        1 0.42929063E+00 0.71372636E+01</pdfrwt>
<pdfrwt beam="1">  1       -1 0.52301777E+00 0.71372636E+01</pdfrwt>
<totfact> 0.55258829E-03</totfact>
</mgrwt>
</event>
<event>
 4    1  0.4231559E-004  0.5768173E+01  0.7818608E-02  0.2446609E+00
         -1   -1    0    0    0  501 -0.00000000000E+00  0.00000000000E+00  0.43374240551E+02  0.43374240843E+02  0.50400000000E-02 0.  1.
          1   -1    0    0  501    0  0.00000000000E+00 -0.00000000000E+00 -0.19173834677E+00  0.19180457560E+00  0.50400000000E-02 0. -1.
         31    1    1    2    0    0  0.22763923553E+00 -0.38091355772E+00  0.18883379900E+02  0.19098990845E+02  0.28271010000E+01 0. -1.
        -31    1    1    2    0    0 -0.22763923553E+00  0.38091355772E+00  0.24299122303E+02  0.24467054574E+02  0.28271010000E+01 0.  1.
<mgrwt>
<rscale>  0 0.57681727E+01</rscale>
<asrwt>0</asrwt>
<pdfrwt beam="2">  1        1 0.40709479E+00 0.57681727E+01</pdfrwt>
<pdfrwt beam="1">  1       -1 0.36023455E+00 0.57681727E+01</pdfrwt>
<totfact> 0.79131731E-02</totfact>
</mgrwt>
</event>
<event>
 4    1  0.4231559E-004  0.7049577E+01  0.7818608E-02  0.2296024E+00
          1   -1    0    0  501    0  0.00000000000E+00  0.00000000000E+00  0.82576929854E+02  0.82576930008E+02  0.50400000000E-02 0.  1.
         -1   -1    0    0    0  501 -0.00000000000E+00 -0.00000000000E+00 -0.15041292160E+00  0.15049733746E+00  0.50400000000E-02 0. -1.
         31    1    1    2    0    0  0.12265589706E+01  0.59915673139E+00  0.22407068232E+02  0.22625928545E+02  0.28271010000E+01 0. -1.
        -31    1    1    2    0    0 -0.12265589706E+01 -0.59915673139E+00  0.60019448700E+02  0.60101498800E+02  0.28271010000E+01 0.  1.
<mgrwt>
<rscale>  0 0.70495774E+01</rscale>
<asrwt>0</asrwt>
<pdfrwt beam="1">  1        1 0.68404825E+00 0.70495774E+01</pdfrwt>
<pdfrwt beam="2">  1       -1 0.32021658E+00 0.70495774E+01</pdfrwt>
<totfact> 0.71649787E-03</totfact>
</mgrwt>
</event>
<event>
 4    1  0.4231559E-004  0.6917821E+01  0.7818608E-02  0.2309359E+00
         -1   -1    0    0    0  501 -0.00000000000E+00  0.00000000000E+00  0.48681402814E+02  0.48681403075E+02  0.50400000000E-02 0. -1.
          1   -1    0    0  501    0  0.00000000000E+00 -0.00000000000E+00 -0.24573635781E+00  0.24578803703E+00  0.50400000000E-02 0.  1.
         31    1    1    2    0    0  0.68871700684E+00  0.98262821408E+00  0.12964409221E+02  0.13323223928E+02  0.28271010000E+01 0.  1.
        -31    1    1    2    0    0 -0.68871700684E+00 -0.98262821408E+00  0.35471257236E+02  0.35603967184E+02  0.28271010000E+01 0. -1.
<mgrwt>
<rscale>  0 0.69178208E+01</rscale>
<asrwt>0</asrwt>
<pdfrwt beam="2">  1        1 0.52138136E+00 0.69178208E+01</pdfrwt>
<pdfrwt beam="1">  1       -1 0.40456425E+00 0.69178208E+01</pdfrwt>
<totfact> 0.14050516E-02</totfact>
</mgrwt>
</event>
<event>
 4    1  0.4231559E-004  0.6407477E+01  0.7818608E-02  0.2365226E+00
         -1   -1    0    0    0  501 -0.00000000000E+00  0.00000000000E+00  0.85723832799E+02  0.85723832947E+02  0.50400000000E-02 0. -1.
          1   -1    0    0  501    0  0.00000000000E+00 -0.00000000000E+00 -0.11967945161E+00  0.11978552808E+00  0.50400000000E-02 0.  1.
         31    1    1    2    0    0 -0.40163771038E+00  0.16718854460E+00  0.23469949494E+02  0.23643610007E+02  0.28271010000E+01 0.  1.
        -31    1    1    2    0    0  0.40163771038E+00 -0.16718854460E+00  0.62134203853E+02  0.62200008468E+02  0.28271010000E+01 0. -1.
<mgrwt>
<rscale>  0 0.64074771E+01</rscale>
<asrwt>0</asrwt>
<pdfrwt beam="2">  1        1 0.25493724E+00 0.64074771E+01</pdfrwt>
<pdfrwt beam="1">  1       -1 0.70981510E+00 0.64074771E+01</pdfrwt>
<totfact> 0.46776203E-03</totfact>
</mgrwt>
</event>
<event>
 4    1  0.4231559E-004  0.7187409E+01  0.7818608E-02  0.2282505E+00
          1   -1    0    0  501    0  0.00000000000E+00  0.00000000000E+00  0.42892834881E+02  0.42892835178E+02  0.50400000000E-02 0. -1.
         -1   -1    0    0    0  501 -0.00000000000E+00 -0.00000000000E+00 -0.30107117261E+00  0.30111335503E+00  0.50400000000E-02 0.  1.
         31    1    1    2    0    0 -0.75955312291E+00  0.15354978520E+01  0.12823445120E+02  0.13242655301E+02  0.28271010000E+01 0.  1.
        -31    1    1    2    0    0  0.75955312291E+00 -0.15354978520E+01  0.29768318589E+02  0.29951293232E+02  0.28271010000E+01 0. -1.
<mgrwt>
<rscale>  0 0.71874094E+01</rscale>
<asrwt>0</asrwt>
<pdfrwt beam="1">  1        1 0.35715779E+00 0.71874094E+01</pdfrwt>
<pdfrwt beam="2">  1       -1 0.63751297E+00 0.71874094E+01</pdfrwt>
<totfact> 0.26956166E-03</totfact>
</mgrwt>
</event>
<event>
 4    1  0.4231559E-004  0.5664055E+01  0.7818608E-02  0.2461312E+00
         -1   -1    0    0    0  501 -0.00000000000E+00  0.00000000000E+00  0.45616310594E+02  0.45616310873E+02  0.50400000000E-02 0. -1.
          1   -1    0    0  501    0  0.00000000000E+00 -0.00000000000E+00 -0.17578623598E+00  0.17585847253E+00  0.50400000000E-02 0.  1.
         31    1    1    2    0    0  0.11857116881E+00  0.76194144158E-01  0.21996462200E+02  0.22177842863E+02  0.28271010000E+01 0.  1.
        -31    1    1    2    0    0 -0.11857116881E+00 -0.76194144158E-01  0.23444062158E+02  0.23614326482E+02  0.28271010000E+01 0. -1.
<mgrwt>
<rscale>  0 0.56640550E+01</rscale>
<asrwt>0</asrwt>
<pdfrwt beam="2">  1        1 0.37344863E+00 0.56640550E+01</pdfrwt>
<pdfrwt beam="1">  1       -1 0.37864170E+00 0.56640550E+01</pdfrwt>
<totfact> 0.83088768E-02</totfact>
</mgrwt>
</event>
<event>
 4    1  0.4231559E-004  0.6412701E+01  0.7818608E-02  0.2364617E+00
          1   -1    0    0  501    0  0.00000000000E+00  0.00000000000E+00  0.67273053406E+02  0.67273053595E+02  0.50400000000E-02 0.  1.
         -1   -1    0    0    0  501 -0.00000000000E+00 -0.00000000000E+00 -0.15277848524E+00  0.15286159476E+00  0.50400000000E-02 0. -1.
         31    1    1    2    0    0  0.12614668188E+01  0.33282425131E+00  0.41609777890E+02  0.41726109172E+02  0.28271010000E+01 0.  1.
        -31    1    1    2    0    0 -0.12614668188E+01 -0.33282425131E+00  0.25510497031E+02  0.25699806018E+02  0.28271010000E+01 0. -1.
<mgrwt>
<rscale>  0 0.64127010E+01</rscale>
<asrwt>0</asrwt>
<pdfrwt beam="1">  1        1 0.55752464E+00 0.64127010E+01</pdfrwt>
<pdfrwt beam="2">  1       -1 0.32510399E+00 0.64127010E+01</pdfrwt>
<totfact> 0.29393555E-02</totfact>
</mgrwt>
</event>
<event>
 4    1  0.4231559E-004  0.7410247E+01  0.7818608E-02  0.2261520E+00
         -1   -1    0    0    0  501 -0.00000000000E+00  0.00000000000E+00  0.53122955652E+02  0.53122955891E+02  0.50400000000E-02 0. -1.
          1   -1    0    0  501    0  0.00000000000E+00 -0.00000000000E+00 -0.25839341169E+00  0.25844255997E+00  0.50400000000E-02 0.  1.
         31    1    1    2    0    0  0.16958105847E+01  0.74838480670E+00  0.15508269779E+02  0.15872453653E+02  0.28271010000E+01 0.  1.
        -31    1    1    2    0    0 -0.16958105847E+01 -0.74838480670E+00  0.37356292461E+02  0.37508944798E+02  0.28271010000E+01 0. -1.
<mgrwt>
<rscale>  0 0.74102469E+01</rscale>
<asrwt>0</asrwt>
<pdfrwt beam="2">  1        1 0.54833072E+00 0.74102469E+01</pdfrwt>
<pdfrwt beam="1">  1       -1 0.44139475E+00 0.74102469E+01</pdfrwt>
<totfact> 0.61099783E-03</totfact>
</mgrwt>
</event>
<event>
 4    1  0.4231559E-004  0.6378726E+01  0.7818608E-02  0.2368592E+00
          1   -1    0    0  501    0  0.00000000000E+00  0.00000000000E+00  0.94583373388E+02  0.94583373522E+02  0.50400000000E-02 0.  1.
         -1   -1    0    0    0  501 -0.00000000000E+00 -0.00000000000E+00 -0.10748653204E+00  0.10760462894E+00  0.50400000000E-02 0. -1.
         31    1    1    2    0    0 -0.11887083639E+01 -0.32312028301E-01  0.60225793412E+02  0.60303837057E+02  0.28271010000E+01 0.  1.
        -31    1    1    2    0    0  0.11887083639E+01  0.32312028301E-01  0.34250093443E+02  0.34387141093E+02  0.28271010000E+01 0.  1.
<mgrwt>
<rscale>  0 0.63787260E+01</rscale>
<asrwt>0</asrwt>
<pdfrwt beam="1">  1        1 0.78297126E+00 0.63787260E+01</pdfrwt>
<pdfrwt beam="2">  1       -1 0.22904798E+00 0.63787260E+01</pdfrwt>
<totfact> 0.58066789E-03</totfact>
</mgrwt>
</event>
<event>
 4    1  0.4231559E-004  0.5791124E+01  0.7818608E-02  0.2443428E+00
         -1   -1    0    0    0  501 -0.00000000000E+00  0.00000000000E+00  0.36538138795E+02  0.36538139142E+02  0.50400000000E-02 0. -1.
          1   -1    0    0  501    0  0.00000000000E+00 -0.00000000000E+00 -0.22943850213E+00  0.22949385146E+00  0.50400000000E-02 0.  1.
         31    1    1    2    0    0  0.23597163904E+00 -0.55464911170E+00  0.19225453159E+02  0.19441550028E+02  0.28271010000E+01 0. -1.
        -31    1    1    2    0    0 -0.23597163904E+00  0.55464911170E+00  0.17083247133E+02  0.17326082966E+02  0.28271010000E+01 0.  1.
<mgrwt>
<rscale>  0 0.57911242E+01</rscale>
<asrwt>0</asrwt>
<pdfrwt beam="2">  1        1 0.48621376E+00 0.57911242E+01</pdfrwt>
<pdfrwt beam="1">  1       -1 0.30402051E+00 0.57911242E+01</pdfrwt>
<totfact> 0.80324939E-02</totfact>
</mgrwt>
</event>
<event>
 4    1  0.4231559E-004  0.5905855E+01  0.7818608E-02  0.2427840E+00
          1   -1    0    0  501    0  0.00000000000E+00  0.00000000000E+00  0.55154877168E+02  0.55154877398E+02  0.50400000000E-02 0.  1.
         -1   -1    0    0    0  501 -0.00000000000E+00 -0.00000000000E+00 -0.15805588004E+00  0.15813621602E+00  0.50400000000E-02 0. -1.
         31    1    1    2    0    0 -0.79599042623E+00 -0.19924214309E+00  0.29674473001E+02  0.29820129881E+02  0.28271010000E+01 0.  1.
        -31    1    1    2    0    0  0.79599042623E+00  0.19924214309E+00  0.25322348287E+02  0.25492883733E+02  0.28271010000E+01 0. -1.
<mgrwt>
<rscale>  0 0.59058550E+01</rscale>
<asrwt>0</asrwt>
<pdfrwt beam="1">  1        1 0.45736670E+00 0.59058550E+01</pdfrwt>
<pdfrwt beam="2">  1       -1 0.33612855E+00 0.59058550E+01</pdfrwt>
<totfact> 0.68859859E-02</totfact>
</mgrwt>
</event>
<event>
 4    1  0.4231559E-004  0.6459620E+01  0.7818608E-02  0.2359185E+00
         -1   -1    0    0    0  501 -0.00000000000E+00  0.00000000000E+00  0.62626742500E+02  0.62626742703E+02  0.50400000000E-02 0. -1.
          1   -1    0    0  501    0  0.00000000000E+00 -0.00000000000E+00 -0.16653065165E+00  0.16660690123E+00  0.50400000000E-02 0.  1.
         31    1    1    2    0    0 -0.59062251742E+00  0.20462872857E+00  0.45143110173E+02  0.45235866345E+02  0.28271010000E+01 0. -1.
        -31    1    1    2    0    0  0.59062251742E+00 -0.20462872857E+00  0.17317101676E+02  0.17557483259E+02  0.28271010000E+01 0.  1.
<mgrwt>
<rscale>  0 0.64596200E+01</rscale>
<asrwt>0</asrwt>
<pdfrwt beam="2">  1        1 0.35421541E+00 0.64596200E+01</pdfrwt>
<pdfrwt beam="1">  1       -1 0.51921935E+00 0.64596200E+01</pdfrwt>
<totfact> 0.11706289E-02</totfact>
</mgrwt>
</event>
<event>
 4    1  0.4231559E-004  0.6367583E+01  0.7818608E-02  0.2369904E+00
         -1   -1    0    0    0  501 -0.00000000000E+00  0.00000000000E+00  0.56272287517E+02  0.56272287742E+02  0.50400000000E-02 0.  1.
          1   -1    0    0  501    0  0.00000000000E+00 -0.00000000000E+00 -0.18009809073E+00  0.18016859850E+00  0.50400000000E-02 0. -1.
         31    1    1    2    0    0 -0.42400224547E+00 -0.13744013144E+01  0.30478424613E+02  0.30643035487E+02  0.28271010000E+01 0. -1.
        -31    1    1    2    0    0  0.42400224547E+00  0.13744013144E+01  0.25613764813E+02  0.25809420854E+02  0.28271010000E+01 0.  1.
<mgrwt>
<rscale>  0 0.63675829E+01</rscale>
<asrwt>0</asrwt>
<pdfrwt beam="2">  1        1 0.38285431E+00 0.63675829E+01</pdfrwt>
<pdfrwt beam="1">  1       -1 0.46678841E+00 0.63675829E+01</pdfrwt>
<totfact> 0.20682537E-02</totfact>
</mgrwt>
</event>
<event>
 4    1  0.4231559E-004  0.5988048E+01  0.7818608E-02  0.2416982E+00
         -1   -1    0    0    0  501 -0.00000000000E+00  0.00000000000E+00  0.29740957088E+02  0.29740957515E+02  0.50400000000E-02 0.  1.
          1   -1    0    0  501    0  0.00000000000E+00 -0.00000000000E+00 -0.30138710093E+00  0.30142923914E+00  0.50400000000E-02 0. -1.
         31    1    1    2    0    0 -0.31155973774E+00  0.52183161464E+00  0.10826139015E+02  0.11205675515E+02  0.28271010000E+01 0. -1.
        -31    1    1    2    0    0  0.31155973774E+00 -0.52183161464E+00  0.18613430972E+02  0.18836711240E+02  0.28271010000E+01 0.  1.
<mgrwt>
<rscale>  0 0.59880482E+01</rscale>
<asrwt>0</asrwt>
<pdfrwt beam="2">  1        1 0.63621412E+00 0.59880482E+01</pdfrwt>
<pdfrwt beam="1">  1       -1 0.24841147E+00 0.59880482E+01</pdfrwt>
<totfact> 0.34626344E-02</totfact>
</mgrwt>
</event>
<event>
 4    1  0.4231559E-004  0.5872315E+01  0.7818608E-02  0.2432344E+00
          1   -1    0    0  501    0  0.00000000000E+00  0.00000000000E+00  0.52506245551E+02  0.52506245793E+02  0.50400000000E-02 0. -1.
         -1   -1    0    0    0  501 -0.00000000000E+00 -0.00000000000E+00 -0.16415146020E+00  0.16422881442E+00  0.50400000000E-02 0.  1.
         31    1    1    2    0    0 -0.52076566132E+00 -0.96583778636E-01  0.31462128120E+02  0.31593330486E+02  0.28271010000E+01 0. -1.
        -31    1    1    2    0    0  0.52076566132E+00  0.96583778636E-01  0.20879965971E+02  0.21077144121E+02  0.28271010000E+01 0.  1.
<mgrwt>
<rscale>  0 0.58723148E+01</rscale>
<asrwt>0</asrwt>
<pdfrwt beam="1">  1        1 0.43551634E+00 0.58723148E+01</pdfrwt>
<pdfrwt beam="2">  1       -1 0.34899451E+00 0.58723148E+01</pdfrwt>
<totfact> 0.71014214E-02</totfact>
</mgrwt>
</event>
<event>
 4    1  0.4231559E-004  0.6010919E+01  0.7818608E-02  0.2414005E+00
         -1   -1    0    0    0  501 -0.00000000000E+00  0.00000000000E+00  0.56379320883E+02  0.56379321109E+02  0.50400000000E-02 0. -1.
          1   -1    0    0  501    0  0.00000000000E+00 -0.00000000000E+00 -0.16017466677E+00  0.16025394059E+00  0.50400000000E-02 0.  1.
         31    1    1    2    0    0  0.79871829655E+00 -0.55493600415E+00  0.30999287338E+02  0.31143124770E+02  0.28271010000E+01 0. -1.
        -31    1    1    2    0    0 -0.79871829655E+00  0.55493600415E+00  0.25219858878E+02  0.25396450280E+02  0.28271010000E+01 0. -1.
<mgrwt>
<rscale>  0 0.60109189E+01</rscale>
<asrwt>0</asrwt>
<pdfrwt beam="2">  1        1 0.34064056E+00 0.60109189E+01</pdfrwt>
<pdfrwt beam="1">  1       -1 0.46750877E+00 0.60109189E+01</pdfrwt>
<totfact> 0.29919294E-02</totfact>
</mgrwt>
</event>
<event>
 4    1  0.4231559E-004  0.6399547E+01  0.7818608E-02  0.2366152E+00
          1   -1    0    0  501    0  0.00000000000E+00  0.00000000000E+00  0.70996771463E+02  0.70996771642E+02  0.50400000000E-02 0.  1.
         -1   -1    0    0    0  501 -0.00000000000E+00 -0.00000000000E+00 -0.14416726002E+00  0.14425533079E+00  0.50400000000E-02 0. -1.
         31    1    1    2    0    0 -0.12377710266E+00 -0.93572439058E+00  0.22485407194E+02  0.22682084068E+02  0.28271010000E+01 0. -1.
        -31    1    1    2    0    0  0.12377710266E+00  0.93572439058E+00  0.48367197009E+02  0.48458942905E+02  0.28271010000E+01 0.  1.
<mgrwt>
<rscale>  0 0.63995466E+01</rscale>
<asrwt>0</asrwt>
<pdfrwt beam="1">  1        1 0.58824379E+00 0.63995466E+01</pdfrwt>
<pdfrwt beam="2">  1       -1 0.30686365E+00 0.63995466E+01</pdfrwt>
<totfact> 0.27008694E-02</totfact>
</mgrwt>
</event>
<event>
 4    1  0.4231559E-004  0.6783663E+01  0.7818608E-02  0.2323372E+00
          1   -1    0    0  501    0  0.00000000000E+00  0.00000000000E+00  0.81224662418E+02  0.81224662574E+02  0.50400000000E-02 0. -1.
         -1   -1    0    0    0  501 -0.00000000000E+00 -0.00000000000E+00 -0.14159328963E+00  0.14168296040E+00  0.50400000000E-02 0.  1.
         31    1    1    2    0    0  0.75270354824E+00 -0.51888490038E+00  0.60163442120E+02  0.60236766779E+02  0.28271010000E+01 0. -1.
        -31    1    1    2    0    0 -0.75270354824E+00  0.51888490038E+00  0.20919627008E+02  0.21129578755E+02  0.28271010000E+01 0.  1.
<mgrwt>
<rscale>  0 0.67836632E+01</rscale>
<asrwt>0</asrwt>
<pdfrwt beam="1">  1        1 0.67279387E+00 0.67836632E+01</pdfrwt>
<pdfrwt beam="2">  1       -1 0.30147473E+00 0.67836632E+01</pdfrwt>
<totfact> 0.10698380E-02</totfact>
</mgrwt>
</event>
<event>
 4    1  0.4231559E-004  0.5840809E+01  0.7818608E-02  0.2436615E+00
         -1   -1    0    0    0  501 -0.00000000000E+00  0.00000000000E+00  0.76533097716E+02  0.76533097882E+02  0.50400000000E-02 0.  1.
          1   -1    0    0  501    0  0.00000000000E+00 -0.00000000000E+00 -0.11138172124E+00  0.11149569241E+00  0.50400000000E-02 0. -1.
         31    1    1    2    0    0  0.41380871362E-01 -0.70906944103E+00  0.35871919781E+02  0.35990160053E+02  0.28271010000E+01 0. -1.
        -31    1    1    2    0    0 -0.41380871362E-01  0.70906944103E+00  0.40549796215E+02  0.40654433522E+02  0.28271010000E+01 0. -1.
<mgrwt>
<rscale>  0 0.58408089E+01</rscale>
<asrwt>0</asrwt>
<pdfrwt beam="2">  1        1 0.23726388E+00 0.58408089E+01</pdfrwt>
<pdfrwt beam="1">  1       -1 0.63375113E+00 0.58408089E+01</pdfrwt>
<totfact> 0.79963596E-03</totfact>
</mgrwt>
</event>
<event>
 4    1  0.4231559E-004  0.7120772E+01  0.7818608E-02  0.2288988E+00
          1   -1    0    0  501    0  0.00000000000E+00  0.00000000000E+00  0.54677457334E+02  0.54677457566E+02  0.50400000000E-02 0.  1.
         -1   -1    0    0    0  501 -0.00000000000E+00 -0.00000000000E+00 -0.23181101077E+00  0.23186579376E+00  0.50400000000E-02 0. -1.
         31    1    1    2    0    0 -0.99836811409E+00  0.66351936787E+00  0.41117554679E+02  0.41232060337E+02  0.28271010000E+01 0. -1.
        -31    1    1    2    0    0  0.99836811409E+00 -0.66351936787E+00  0.13328091644E+02  0.13677263023E+02  0.28271010000E+01 0. -1.
<mgrwt>
<rscale>  0 0.71207716E+01</rscale>
<asrwt>0</asrwt>
<pdfrwt beam="1">  1        1 0.45402870E+00 0.71207716E+01</pdfrwt>
<pdfrwt beam="2">  1       -1 0.49223806E+00 0.71207716E+01</pdfrwt>
<totfact> 0.71089273E-03</totfact>
</mgrwt>
</event>
<event>
 4    1  0.4231559E-004  0.6724812E+01  0.7818608E-02  0.2329664E+00
         -1   -1    0    0    0  501 -0.00000000000E+00  0.00000000000E+00  0.48493361287E+02  0.48493361548E+02  0.50400000000E-02 0.  1.
          1   -1    0    0  501    0  0.00000000000E+00 -0.00000000000E+00 -0.23311314951E+00  0.23316762656E+00  0.50400000000E-02 0. -1.
         31    1    1    2    0    0  0.21982265825E+00 -0.18045044219E+01  0.24806568476E+02  0.25033235864E+02  0.28271010000E+01 0.  1.
        -31    1    1    2    0    0 -0.21982265825E+00  0.18045044219E+01  0.23453679661E+02  0.23693293311E+02  0.28271010000E+01 0. -1.
<mgrwt>
<rscale>  0 0.67248119E+01</rscale>
<asrwt>0</asrwt>
<pdfrwt beam="2">  1        1 0.49472285E+00 0.67248119E+01</pdfrwt>
<pdfrwt beam="1">  1       -1 0.40290504E+00 0.67248119E+01</pdfrwt>
<totfact> 0.18819528E-02</totfact>
</mgrwt>
</event>
<event>
 4    1  0.4231559E-004  0.6913206E+01  0.7818608E-02  0.2309834E+00
          1   -1    0    0  501    0  0.00000000000E+00  0.00000000000E+00  0.51490502645E+02  0.51490502891E+02  0.50400000000E-02 0.  1.
         -1   -1    0    0    0  501 -0.00000000000E+00 -0.00000000000E+00 -0.23201717488E+00  0.23207190920E+00  0.50400000000E-02 0. -1.
         31    1    1    2    0    0 -0.12868859956E+01 -0.10692954404E+01  0.17584635615E+02  0.17888861844E+02  0.28271010000E+01 0. -1.
        -31    1    1    2    0    0  0.12868859956E+01  0.10692954404E+01  0.33673849855E+02  0.33833712957E+02  0.28271010000E+01 0.  1.
<mgrwt>
<rscale>  0 0.69132056E+01</rscale>
<asrwt>0</asrwt>
<pdfrwt beam="1">  1        1 0.42767844E+00 0.69132056E+01</pdfrwt>
<pdfrwt beam="2">  1       -1 0.49254507E+00 0.69132056E+01</pdfrwt>
<totfact> 0.90921357E-03</totfact>
</mgrwt>
</event>
<event>
 4    1  0.4231559E-004  0.7951033E+01  0.7818608E-02  0.2214608E+00
         -1   -1    0    0    0  501 -0.00000000000E+00  0.00000000000E+00  0.54292335555E+02  0.54292335789E+02  0.50400000000E-02 0.  1.
          1   -1    0    0  501    0  0.00000000000E+00 -0.00000000000E+00 -0.29108221627E+00  0.29112584603E+00  0.50400000000E-02 0. -1.
         31    1    1    2    0    0 -0.20027719888E+01 -0.19414811880E+01  0.25776708095E+02  0.26080867031E+02  0.28271010000E+01 0. -1.
        -31    1    1    2    0    0  0.20027719888E+01  0.19414811880E+01  0.28224545244E+02  0.28502594603E+02  0.28271010000E+01 0.  1.
<mgrwt>
<rscale>  0 0.79510328E+01</rscale>
<asrwt>0</asrwt>
<pdfrwt beam="2">  1        1 0.61738088E+00 0.79510328E+01</pdfrwt>
<pdfrwt beam="1">  1       -1 0.45133425E+00 0.79510328E+01</pdfrwt>
<totfact> 0.24310357E-03</totfact>
</mgrwt>
</event>
<event>
 4    1  0.4231559E-004  0.6665510E+01  0.7818608E-02  0.2336097E+00
          1   -1    0    0  501    0  0.00000000000E+00  0.00000000000E+00  0.87236866764E+02  0.87236866909E+02  0.50400000000E-02 0.  1.
         -1   -1    0    0    0  501 -0.00000000000E+00 -0.00000000000E+00 -0.12727292528E+00  0.12737267803E+00  0.50400000000E-02 0. -1.
         31    1    1    2    0    0  0.10394261255E+01 -0.41441869429E+00  0.25666839028E+02  0.25846300998E+02  0.28271010000E+01 0. -1.
        -31    1    1    2    0    0 -0.10394261255E+01  0.41441869429E+00  0.61442754810E+02  0.61517938589E+02  0.28271010000E+01 0.  1.
<mgrwt>
<rscale>  0 0.66655097E+01</rscale>
<asrwt>0</asrwt>
<pdfrwt beam="1">  1        1 0.72238866E+00 0.66655097E+01</pdfrwt>
<pdfrwt beam="2">  1       -1 0.27108170E+00 0.66655097E+01</pdfrwt>
<totfact> 0.82948543E-03</totfact>
</mgrwt>
</event>
<event>
 4    1  0.4231559E-004  0.6399575E+01  0.7818608E-02  0.2366149E+00
         -1   -1    0    0    0  501 -0.00000000000E+00  0.00000000000E+00  0.46618217664E+02  0.46618217936E+02  0.50400000000E-02 0. -1.
          1   -1    0    0  501    0  0.00000000000E+00 -0.00000000000E+00 -0.21959825258E+00  0.21965608150E+00  0.50400000000E-02 0.  1.
         31    1    1    2    0    0  0.32848083705E+00 -0.14126181802E+01  0.20434061969E+02  0.20679622299E+02  0.28271010000E+01 0.  1.
        -31    1    1    2    0    0 -0.32848083705E+00  0.14126181802E+01  0.25964557442E+02  0.26158251719E+02  0.28271010000E+01 0. -1.
<mgrwt>
<rscale>  0 0.63995749E+01</rscale>
<asrwt>0</asrwt>
<pdfrwt beam="2">  1        1 0.46609264E+00 0.63995749E+01</pdfrwt>
<pdfrwt beam="1">  1       -1 0.38728831E+00 0.63995749E+01</pdfrwt>
<totfact> 0.31180059E-02</totfact>
</mgrwt>
</event>
<event>
 4    1  0.4231559E-004  0.6059258E+01  0.7818608E-02  0.2407774E+00
          1   -1    0    0  501    0  0.00000000000E+00  0.00000000000E+00  0.77962933965E+02  0.77962934128E+02  0.50400000000E-02 0. -1.
         -1   -1    0    0    0  501 -0.00000000000E+00 -0.00000000000E+00 -0.11767688570E+00  0.11778476569E+00  0.50400000000E-02 0.  1.
         31    1    1    2    0    0 -0.56318695516E+00  0.62152999158E+00  0.47875273230E+02  0.47966006358E+02  0.28271010000E+01 0.  1.
        -31    1    1    2    0    0  0.56318695516E+00 -0.62152999158E+00  0.29969983849E+02  0.30114712535E+02  0.28271010000E+01 0.  1.
<mgrwt>
<rscale>  0 0.60592585E+01</rscale>
<asrwt>0</asrwt>
<pdfrwt beam="1">  1        1 0.64562601E+00 0.60592585E+01</pdfrwt>
<pdfrwt beam="2">  1       -1 0.25064689E+00 0.60592585E+01</pdfrwt>
<totfact> 0.30007454E-02</totfact>
</mgrwt>
</event>
<event>
 4    1  0.4231559E-004  0.6090299E+01  0.7818608E-02  0.2403817E+00
         -1   -1    0    0    0  501 -0.00000000000E+00  0.00000000000E+00  0.41204888516E+02  0.41204888824E+02  0.50400000000E-02 0. -1.
          1   -1    0    0  501    0  0.00000000000E+00 -0.00000000000E+00 -0.22501600601E+00  0.22507244291E+00  0.50400000000E-02 0.  1.
         31    1    1    2    0    0  0.65346562989E+00  0.88911862248E+00  0.18784044305E+02  0.19027621233E+02  0.28271010000E+01 0.  1.
        -31    1    1    2    0    0 -0.65346562989E+00 -0.88911862248E+00  0.22195828205E+02  0.22402340034E+02  0.28271010000E+01 0.  1.
<mgrwt>
<rscale>  0 0.60902988E+01</rscale>
<asrwt>0</asrwt>
<pdfrwt beam="2">  1        1 0.47723231E+00 0.60902988E+01</pdfrwt>
<pdfrwt beam="1">  1       -1 0.34257191E+00 0.60902988E+01</pdfrwt>
<totfact> 0.52168644E-02</totfact>
</mgrwt>
</event>
<event>
 4    1  0.4231559E-004  0.6215722E+01  0.7818608E-02  0.2388165E+00
          1   -1    0    0  501    0  0.00000000000E+00  0.00000000000E+00  0.89271756333E+02  0.89271756475E+02  0.50400000000E-02 0. -1.
         -1   -1    0    0    0  501 -0.00000000000E+00 -0.00000000000E+00 -0.10813664298E+00  0.10825403066E+00  0.50400000000E-02 0.  1.
         31    1    1    2    0    0 -0.50824827491E+00 -0.57245090006E+00  0.29636057205E+02  0.29780436583E+02  0.28271010000E+01 0.  1.
        -31    1    1    2    0    0  0.50824827491E+00  0.57245090006E+00  0.59527562485E+02  0.59599573923E+02  0.28271010000E+01 0. -1.
<mgrwt>
<rscale>  0 0.62157221E+01</rscale>
<asrwt>0</asrwt>
<pdfrwt beam="1">  1        1 0.73905646E+00 0.62157221E+01</pdfrwt>
<pdfrwt beam="2">  1       -1 0.23041458E+00 0.62157221E+01</pdfrwt>
<totfact> 0.11493071E-02</totfact>
</mgrwt>
</event>
<event>
 4    1  0.4231559E-004  0.6205181E+01  0.7818608E-02  0.2389460E+00
          1   -1    0    0  501    0  0.00000000000E+00  0.00000000000E+00  0.87124522379E+02  0.87124522525E+02  0.50400000000E-02 0.  1.
         -1   -1    0    0    0  501 -0.00000000000E+00 -0.00000000000E+00 -0.11042868861E+00  0.11054364237E+00  0.50400000000E-02 0. -1.
         31    1    1    2    0    0 -0.76550204298E+00  0.51916667998E+00  0.31106594892E+02  0.31248492336E+02  0.28271010000E+01 0. -1.
        -31    1    1    2    0    0  0.76550204298E+00 -0.51916667998E+00  0.55907498798E+02  0.55986573831E+02  0.28271010000E+01 0.  1.
<mgrwt>
<rscale>  0 0.62051808E+01</rscale>
<asrwt>0</asrwt>
<pdfrwt beam="1">  1        1 0.72132056E+00 0.62051808E+01</pdfrwt>
<pdfrwt beam="2">  1       -1 0.23527997E+00 0.62051808E+01</pdfrwt>
<totfact> 0.13879416E-02</totfact>
</mgrwt>
</event>
<event>
 4    1  0.4231559E-004  0.6178089E+01  0.7818608E-02  0.2392806E+00
          1   -1    0    0  501    0  0.00000000000E+00  0.00000000000E+00  0.83033714049E+02  0.83033714202E+02  0.50400000000E-02 0.  1.
         -1   -1    0    0    0  501 -0.00000000000E+00 -0.00000000000E+00 -0.11486412068E+00  0.11497463990E+00  0.50400000000E-02 0. -1.
         31    1    1    2    0    0  0.82704201074E+00 -0.66120460739E+00  0.32649352211E+02  0.32788624398E+02  0.28271010000E+01 0. -1.
        -31    1    1    2    0    0 -0.82704201074E+00  0.66120460739E+00  0.50269497717E+02  0.50360064444E+02  0.28271010000E+01 0.  1.
<mgrwt>
<rscale>  0 0.61780889E+01</rscale>
<asrwt>0</asrwt>
<pdfrwt beam="1">  1        1 0.68753154E+00 0.61780889E+01</pdfrwt>
<pdfrwt beam="2">  1       -1 0.24469217E+00 0.61780889E+01</pdfrwt>
<totfact> 0.19269676E-02</totfact>
</mgrwt>
</event>
<event>
 4    1  0.4231559E-004  0.7022397E+01  0.7818608E-02  0.2298742E+00
          1   -1    0    0  501    0  0.00000000000E+00  0.00000000000E+00  0.57298034971E+02  0.57298035193E+02  0.50400000000E-02 0. -1.
         -1   -1    0    0    0  501 -0.00000000000E+00 -0.00000000000E+00 -0.21513497275E+00  0.21519400108E+00  0.50400000000E-02 0.  1.
         31    1    1    2    0    0 -0.17516190572E+01  0.10640498897E+01  0.25525099443E+02  0.25762833174E+02  0.28271010000E+01 0. -1.
        -31    1    1    2    0    0  0.17516190572E+01 -0.10640498897E+01  0.31557800555E+02  0.31750396020E+02  0.28271010000E+01 0.  1.
<mgrwt>
<rscale>  0 0.70223970E+01</rscale>
<asrwt>0</asrwt>
<pdfrwt beam="1">  1        1 0.47555962E+00 0.70223970E+01</pdfrwt>
<pdfrwt beam="2">  1       -1 0.45705680E+00 0.70223970E+01</pdfrwt>
<totfact> 0.10048506E-02</totfact>
</mgrwt>
</event>
<event>
 4    1  0.4231559E-004  0.6442146E+01  0.7818608E-02  0.2361200E+00
         -1   -1    0    0    0  501 -0.00000000000E+00  0.00000000000E+00  0.42050824480E+02  0.42050824782E+02  0.50400000000E-02 0.  1.
          1   -1    0    0  501    0  0.00000000000E+00 -0.00000000000E+00 -0.24670658199E+00  0.24675805802E+00  0.50400000000E-02 0. -1.
         31    1    1    2    0    0 -0.22278154549E+00 -0.50970364261E+00  0.11447864333E+02  0.11804894208E+02  0.28271010000E+01 0. -1.
        -31    1    1    2    0    0  0.22278154549E+00  0.50970364261E+00  0.30356253565E+02  0.30492688632E+02  0.28271010000E+01 0.  1.
<mgrwt>
<rscale>  0 0.64421457E+01</rscale>
<asrwt>0</asrwt>
<pdfrwt beam="2">  1        1 0.52301326E+00 0.64421457E+01</pdfrwt>
<pdfrwt beam="1">  1       -1 0.34974601E+00 0.64421457E+01</pdfrwt>
<totfact> 0.30028569E-02</totfact>
</mgrwt>
</event>
<event>
 4    1  0.4231559E-004  0.5920730E+01  0.7818608E-02  0.2425856E+00
         -1   -1    0    0    0  501 -0.00000000000E+00  0.00000000000E+00  0.27527830444E+02  0.27527830906E+02  0.50400000000E-02 0. -1.
          1   -1    0    0  501    0  0.00000000000E+00 -0.00000000000E+00 -0.31833957202E+00  0.31837946654E+00  0.50400000000E-02 0.  1.
         31    1    1    2    0    0  0.19306256146E+00  0.67696784852E+00  0.16074251016E+02  0.16336144110E+02  0.28271010000E+01 0. -1.
        -31    1    1    2    0    0 -0.19306256146E+00 -0.67696784852E+00  0.11135239857E+02  0.11510066262E+02  0.28271010000E+01 0.  1.
<mgrwt>
<rscale>  0 0.59207296E+01</rscale>
<asrwt>0</asrwt>
<pdfrwt beam="2">  1        1 0.67104480E+00 0.59207296E+01</pdfrwt>
<pdfrwt beam="1">  1       -1 0.23025195E+00 0.59207296E+01</pdfrwt>
<totfact> 0.29187636E-02</totfact>
</mgrwt>
</event>
<event>
 4    1  0.4231559E-004  0.8171513E+01  0.7818608E-02  0.2196932E+00
          1   -1    0    0  501    0  0.00000000000E+00  0.00000000000E+00  0.75260828053E+02  0.75260828222E+02  0.50400000000E-02 0. -1.
         -1   -1    0    0    0  501 -0.00000000000E+00 -0.00000000000E+00 -0.22177858298E+00  0.22183584351E+00  0.50400000000E-02 0.  1.
         31    1    1    2    0    0  0.18651775717E+00  0.75544898950E+00  0.11237168829E+02  0.11613438570E+02  0.28271010000E+01 0.  1.
        -31    1    1    2    0    0 -0.18651775717E+00 -0.75544898950E+00  0.63801880640E+02  0.63869225495E+02  0.28271010000E+01 0. -1.
<mgrwt>
<rscale>  0 0.81715133E+01</rscale>
<asrwt>0</asrwt>
<pdfrwt beam="1">  1        1 0.62414348E+00 0.81715133E+01</pdfrwt>
<pdfrwt beam="2">  1       -1 0.47154693E+00 0.81715133E+01</pdfrwt>
<totfact> 0.16335811E-03</totfact>
</mgrwt>
</event>
<event>
 4    1  0.4231559E-004  0.6539790E+01  0.7818608E-02  0.2350052E+00
         -1   -1    0    0    0  501 -0.00000000000E+00  0.00000000000E+00  0.36358026774E+02  0.36358027124E+02  0.50400000000E-02 0. -1.
          1   -1    0    0  501    0  0.00000000000E+00 -0.00000000000E+00 -0.29405924939E+00  0.29410243751E+00  0.50400000000E-02 0.  1.
         31    1    1    2    0    0 -0.62909481462E-02  0.48760337729E+00  0.26825690667E+02  0.26978657796E+02  0.28271010000E+01 0. -1.
        -31    1    1    2    0    0  0.62909481462E-02 -0.48760337729E+00  0.92382768574E+01  0.96734717650E+01  0.28271010000E+01 0.  1.
<mgrwt>
<rscale>  0 0.65397896E+01</rscale>
<asrwt>0</asrwt>
<pdfrwt beam="2">  1        1 0.62200733E+00 0.65397896E+01</pdfrwt>
<pdfrwt beam="1">  1       -1 0.30306545E+00 0.65397896E+01</pdfrwt>
<totfact> 0.19405258E-02</totfact>
</mgrwt>
</event>
<event>
 4    1  0.4231559E-004  0.7194313E+01  0.7818608E-02  0.2281839E+00
         -1   -1    0    0    0  501 -0.00000000000E+00  0.00000000000E+00  0.59298774977E+02  0.59298775191E+02  0.50400000000E-02 0.  1.
          1   -1    0    0  501    0  0.00000000000E+00 -0.00000000000E+00 -0.21817982150E+00  0.21823802627E+00  0.50400000000E-02 0. -1.
         31    1    1    2    0    0  0.12592417167E+01 -0.13409132179E+01  0.19196679101E+02  0.19490734376E+02  0.28271010000E+01 0. -1.
        -31    1    1    2    0    0 -0.12592417167E+01  0.13409132179E+01  0.39883916055E+02  0.40026278842E+02  0.28271010000E+01 0.  1.
<mgrwt>
<rscale>  0 0.71943129E+01</rscale>
<asrwt>0</asrwt>
<pdfrwt beam="2">  1        1 0.46355865E+00 0.71943129E+01</pdfrwt>
<pdfrwt beam="1">  1       -1 0.49212831E+00 0.71943129E+01</pdfrwt>
<totfact> 0.64942370E-03</totfact>
</mgrwt>
</event>
<event>
 4    1  0.4231559E-004  0.6559297E+01  0.7818608E-02  0.2347858E+00
         -1   -1    0    0    0  501 -0.00000000000E+00  0.00000000000E+00  0.37132741361E+02  0.37132741703E+02  0.50400000000E-02 0. -1.
          1   -1    0    0  501    0  0.00000000000E+00 -0.00000000000E+00 -0.28964375398E+00  0.28968760039E+00  0.50400000000E-02 0.  1.
         31    1    1    2    0    0 -0.70012967057E+00  0.13685963568E+01  0.22031470390E+02  0.22265251518E+02  0.28271010000E+01 0.  1.
        -31    1    1    2    0    0  0.70012967057E+00 -0.13685963568E+01  0.14811627217E+02  0.15157177785E+02  0.28271010000E+01 0.  1.
<mgrwt>
<rscale>  0 0.65592967E+01</rscale>
<asrwt>0</asrwt>
<pdfrwt beam="2">  1        1 0.61284373E+00 0.65592967E+01</pdfrwt>
<pdfrwt beam="1">  1       -1 0.30943483E+00 0.65592967E+01</pdfrwt>
<totfact> 0.19784161E-02</totfact>
</mgrwt>
</event>
<event>
 4    1  0.4231559E-004  0.7973310E+01  0.7818608E-02  0.2212786E+00
         -1   -1    0    0    0  501 -0.00000000000E+00  0.00000000000E+00  0.71384428727E+02  0.71384428905E+02  0.50400000000E-02 0.  1.
          1   -1    0    0  501    0  0.00000000000E+00 -0.00000000000E+00 -0.22261674217E+00  0.22267378717E+00  0.50400000000E-02 0. -1.
         31    1    1    2    0    0 -0.26548306785E+01  0.53951830516E-01  0.43860261000E+02  0.44031420961E+02  0.28271010000E+01 0.  1.
        -31    1    1    2    0    0  0.26548306785E+01 -0.53951830516E-01  0.27301550984E+02  0.27575681731E+02  0.28271010000E+01 0.  1.
<mgrwt>
<rscale>  0 0.79733099E+01</rscale>
<asrwt>0</asrwt>
<pdfrwt beam="2">  1        1 0.47324753E+00 0.79733099E+01</pdfrwt>
<pdfrwt beam="1">  1       -1 0.59209763E+00 0.79733099E+01</pdfrwt>
<totfact> 0.13735119E-03</totfact>
</mgrwt>
</event>
<event>
 4    1  0.4231559E-004  0.6247709E+01  0.7818608E-02  0.2384257E+00
          1   -1    0    0  501    0  0.00000000000E+00  0.00000000000E+00  0.54701677580E+02  0.54701677813E+02  0.50400000000E-02 0.  1.
         -1   -1    0    0    0  501 -0.00000000000E+00 -0.00000000000E+00 -0.17835845191E+00  0.17842964711E+00  0.50400000000E-02 0. -1.
         31    1    1    2    0    0  0.10361364896E+01 -0.53887120559E+00  0.21692237489E+02  0.21906839761E+02  0.28271010000E+01 0. -1.
        -31    1    1    2    0    0 -0.10361364896E+01  0.53887120559E+00  0.32831081640E+02  0.32973267698E+02  0.28271010000E+01 0. -1.
<mgrwt>
<rscale>  0 0.62477089E+01</rscale>
<asrwt>0</asrwt>
<pdfrwt beam="1">  1        1 0.45378713E+00 0.62477089E+01</pdfrwt>
<pdfrwt beam="2">  1       -1 0.37913491E+00 0.62477089E+01</pdfrwt>
<totfact> 0.39383921E-02</totfact>
</mgrwt>
</event>
<event>
 4    1  0.4231559E-004  0.5699120E+01  0.7818608E-02  0.2456310E+00
          1   -1    0    0  501    0  0.00000000000E+00  0.00000000000E+00  0.48000405067E+02  0.48000405332E+02  0.50400000000E-02 0.  1.
         -1   -1    0    0    0  501 -0.00000000000E+00 -0.00000000000E+00 -0.16912729084E+00  0.16920237027E+00  0.50400000000E-02 0. -1.
         31    1    1    2    0    0  0.28974741155E+00 -0.18506562394E+00  0.24730301606E+02  0.24893744605E+02  0.28271010000E+01 0. -1.
        -31    1    1    2    0    0 -0.28974741155E+00  0.18506562394E+00  0.23100976170E+02  0.23275863097E+02  0.28271010000E+01 0.  1.
<mgrwt>
<rscale>  0 0.56991203E+01</rscale>
<asrwt>0</asrwt>
<pdfrwt beam="1">  1        1 0.39830002E+00 0.56991203E+01</pdfrwt>
<pdfrwt beam="2">  1       -1 0.35942618E+00 0.56991203E+01</pdfrwt>
<totfact> 0.86670662E-02</totfact>
</mgrwt>
</event>
<event>
 4    1  0.4231559E-004  0.6090773E+01  0.7818608E-02  0.2403757E+00
         -1   -1    0    0    0  501 -0.00000000000E+00  0.00000000000E+00  0.25113636431E+02  0.25113636937E+02  0.50400000000E-02 0. -1.
          1   -1    0    0  501    0  0.00000000000E+00 -0.00000000000E+00 -0.36927886413E+00  0.36931325605E+00  0.50400000000E-02 0.  1.
         31    1    1    2    0    0  0.52138091054E+00 -0.76967180163E+00  0.15076024741E+02  0.15366953335E+02  0.28271010000E+01 0. -1.
        -31    1    1    2    0    0 -0.52138091054E+00  0.76967180163E+00  0.96683328255E+01  0.10115996858E+02  0.28271010000E+01 0. -1.
<mgrwt>
<rscale>  0 0.60907733E+01</rscale>
<asrwt>0</asrwt>
<pdfrwt beam="2">  1        1 0.77600108E+00 0.60907733E+01</pdfrwt>
<pdfrwt beam="1">  1       -1 0.21071086E+00 0.60907733E+01</pdfrwt>
<totfact> 0.85511388E-03</totfact>
</mgrwt>
</event>
<event>
 4    1  0.4231559E-004  0.6225222E+01  0.7818608E-02  0.2387001E+00
          1   -1    0    0  501    0  0.00000000000E+00  0.00000000000E+00  0.55010301169E+02  0.55010301400E+02  0.50400000000E-02 0. -1.
         -1   -1    0    0    0  501 -0.00000000000E+00 -0.00000000000E+00 -0.17608247336E+00  0.17615458843E+00  0.50400000000E-02 0.  1.
         31    1    1    2    0    0  0.34793562902E+00 -0.76820505992E+00  0.18620442223E+02  0.18852707149E+02  0.28271010000E+01 0.  1.
        -31    1    1    2    0    0 -0.34793562902E+00  0.76820505992E+00  0.36213776473E+02  0.36333748839E+02  0.28271010000E+01 0. -1.
<mgrwt>
<rscale>  0 0.62252216E+01</rscale>
<asrwt>0</asrwt>
<pdfrwt beam="1">  1        1 0.45632023E+00 0.62252216E+01</pdfrwt>
<pdfrwt beam="2">  1       -1 0.37432109E+00 0.62252216E+01</pdfrwt>
<totfact> 0.41138680E-02</totfact>
</mgrwt>
</event>
<event>
 4    1  0.4231559E-004  0.6043001E+01  0.7818608E-02  0.2409860E+00
          1   -1    0    0  501    0  0.00000000000E+00  0.00000000000E+00  0.78214968967E+02  0.78214969129E+02  0.50400000000E-02 0. -1.
         -1   -1    0    0    0  501 -0.00000000000E+00 -0.00000000000E+00 -0.11666818314E+00  0.11677699498E+00  0.50400000000E-02 0.  1.
         31    1    1    2    0    0  0.44753902990E+00  0.71864886167E+00  0.47451929278E+02  0.47543609872E+02  0.28271010000E+01 0. -1.
        -31    1    1    2    0    0 -0.44753902990E+00 -0.71864886167E+00  0.30646371506E+02  0.30788136253E+02  0.28271010000E+01 0.  1.
<mgrwt>
<rscale>  0 0.60430014E+01</rscale>
<asrwt>0</asrwt>
<pdfrwt beam="1">  1        1 0.64770168E+00 0.60430014E+01</pdfrwt>
<pdfrwt beam="2">  1       -1 0.24850478E+00 0.60430014E+01</pdfrwt>
<totfact> 0.30147189E-02</totfact>
</mgrwt>
</event>
<event>
 4    1  0.4231559E-004  0.7621781E+01  0.7818608E-02  0.2242528E+00
          1   -1    0    0  501    0  0.00000000000E+00  0.00000000000E+00  0.46498313351E+02  0.46498313624E+02  0.50400000000E-02 0.  1.
         -1   -1    0    0    0  501 -0.00000000000E+00 -0.00000000000E+00 -0.31231087426E+00  0.31235153878E+00  0.50400000000E-02 0. -1.
         31    1    1    2    0    0  0.11160643250E+01 -0.56867699064E+00  0.36773130172E+02  0.36902907688E+02  0.28271010000E+01 0.  1.
        -31    1    1    2    0    0 -0.11160643250E+01  0.56867699064E+00  0.94128723040E+01  0.99077574745E+01  0.28271010000E+01 0. -1.
<mgrwt>
<rscale>  0 0.76217812E+01</rscale>
<asrwt>0</asrwt>
<pdfrwt beam="1">  1        1 0.38706333E+00 0.76217812E+01</pdfrwt>
<pdfrwt beam="2">  1       -1 0.66150831E+00 0.76217812E+01</pdfrwt>
<totfact> 0.17753389E-03</totfact>
</mgrwt>
</event>
<event>
 4    1  0.4231559E-004  0.5998619E+01  0.7818608E-02  0.2415603E+00
         -1   -1    0    0    0  501 -0.00000000000E+00  0.00000000000E+00  0.39855468551E+02  0.39855468870E+02  0.50400000000E-02 0. -1.
          1   -1    0    0  501    0  0.00000000000E+00 -0.00000000000E+00 -0.22568356348E+00  0.22573983350E+00  0.50400000000E-02 0.  1.
         31    1    1    2    0    0 -0.41135992515E+00 -0.86034243240E+00  0.17766832273E+02  0.18015610874E+02  0.28271010000E+01 0.  1.
        -31    1    1    2    0    0  0.41135992515E+00  0.86034243240E+00  0.21862952714E+02  0.22065597829E+02  0.28271010000E+01 0. -1.
<mgrwt>
<rscale>  0 0.59986193E+01</rscale>
<asrwt>0</asrwt>
<pdfrwt beam="2">  1        1 0.47855180E+00 0.59986193E+01</pdfrwt>
<pdfrwt beam="1">  1       -1 0.33141948E+00 0.59986193E+01</pdfrwt>
<totfact> 0.59911163E-02</totfact>
</mgrwt>
</event>
<event>
 4    1  0.4231559E-004  0.6611886E+01  0.7818608E-02  0.2341996E+00
         -1   -1    0    0    0  501 -0.00000000000E+00  0.00000000000E+00  0.43809859106E+02  0.43809859396E+02  0.50400000000E-02 0. -1.
          1   -1    0    0  501    0  0.00000000000E+00 -0.00000000000E+00 -0.24944454287E+00  0.24949545400E+00  0.50400000000E-02 0.  1.
         31    1    1    2    0    0  0.32892858363E+00  0.75224028419E+00  0.11756551187E+02  0.12119531977E+02  0.28271010000E+01 0.  1.
        -31    1    1    2    0    0 -0.32892858363E+00 -0.75224028419E+00  0.31803863376E+02  0.31939822873E+02  0.28271010000E+01 0. -1.
<mgrwt>
<rscale>  0 0.66118857E+01</rscale>
<asrwt>0</asrwt>
<pdfrwt beam="2">  1        1 0.52890748E+00 0.66118857E+01</pdfrwt>
<pdfrwt beam="1">  1       -1 0.36431357E+00 0.66118857E+01</pdfrwt>
<totfact> 0.23104759E-02</totfact>
</mgrwt>
</event>
<event>
 4    1  0.4231559E-004  0.6513536E+01  0.7818608E-02  0.2353022E+00
         -1   -1    0    0    0  501 -0.00000000000E+00  0.00000000000E+00  0.66104384765E+02  0.66104384957E+02  0.50400000000E-02 0.  1.
          1   -1    0    0  501    0  0.00000000000E+00 -0.00000000000E+00 -0.16041158054E+00  0.16049073734E+00  0.50400000000E-02 0. -1.
         31    1    1    2    0    0 -0.37542902415E+00  0.14129534253E+01  0.39995718811E+02  0.40122156068E+02  0.28271010000E+01 0. -1.
        -31    1    1    2    0    0  0.37542902415E+00 -0.14129534253E+01  0.25948254374E+02  0.26142719626E+02  0.28271010000E+01 0. -1.
<mgrwt>
<rscale>  0 0.65135360E+01</rscale>
<asrwt>0</asrwt>
<pdfrwt beam="2">  1        1 0.34128517E+00 0.65135360E+01</pdfrwt>
<pdfrwt beam="1">  1       -1 0.54792436E+00 0.65135360E+01</pdfrwt>
<totfact> 0.84621134E-03</totfact>
</mgrwt>
</event>
<event>
 4    1  0.4231559E-004  0.6579223E+01  0.7818608E-02  0.2345627E+00
          1   -1    0    0  501    0  0.00000000000E+00  0.00000000000E+00  0.87294479937E+02  0.87294480082E+02  0.50400000000E-02 0.  1.
         -1   -1    0    0    0  501 -0.00000000000E+00 -0.00000000000E+00 -0.12391460344E+00  0.12401705747E+00  0.50400000000E-02 0. -1.
         31    1    1    2    0    0  0.12271638175E+01 -0.16898380607E+00  0.58703117113E+02  0.58784206598E+02  0.28271010000E+01 0.  1.
        -31    1    1    2    0    0 -0.12271638175E+01  0.16898380607E+00  0.28467448221E+02  0.28634290542E+02  0.28271010000E+01 0. -1.
<mgrwt>
<rscale>  0 0.65792235E+01</rscale>
<asrwt>0</asrwt>
<pdfrwt beam="1">  1        1 0.72283730E+00 0.65792235E+01</pdfrwt>
<pdfrwt beam="2">  1       -1 0.26394480E+00 0.65792235E+01</pdfrwt>
<totfact> 0.90907281E-03</totfact>
</mgrwt>
</event>
<event>
 4    1  0.4231559E-004  0.5680948E+01  0.7818608E-02  0.2458895E+00
         -1   -1    0    0    0  501 -0.00000000000E+00  0.00000000000E+00  0.26883007356E+02  0.26883007829E+02  0.50400000000E-02 0.  1.
          1   -1    0    0  501    0  0.00000000000E+00 -0.00000000000E+00 -0.30010446305E+00  0.30014678133E+00  0.50400000000E-02 0. -1.
         31    1    1    2    0    0  0.10127368225E-01 -0.27178389145E+00  0.13495751624E+02  0.13791366176E+02  0.28271010000E+01 0. -1.
        -31    1    1    2    0    0 -0.10127368225E-01  0.27178389145E+00  0.13087151270E+02  0.13391788434E+02  0.28271010000E+01 0. -1.
<mgrwt>
<rscale>  0 0.56809478E+01</rscale>
<asrwt>0</asrwt>
<pdfrwt beam="2">  1        1 0.63286185E+00 0.56809478E+01</pdfrwt>
<pdfrwt beam="1">  1       -1 0.22476934E+00 0.56809478E+01</pdfrwt>
<totfact> 0.50153037E-02</totfact>
</mgrwt>
</event>
<event>
 4    1  0.4231559E-004  0.6208792E+01  0.7818608E-02  0.2389016E+00
         -1   -1    0    0    0  501 -0.00000000000E+00  0.00000000000E+00  0.52639522781E+02  0.52639523022E+02  0.50400000000E-02 0. -1.
          1   -1    0    0  501    0  0.00000000000E+00 -0.00000000000E+00 -0.18304564019E+00  0.18311501302E+00  0.50400000000E-02 0.  1.
         31    1    1    2    0    0  0.38498584166E+00  0.12082071163E+01  0.24596283242E+02  0.24790676229E+02  0.28271010000E+01 0. -1.
        -31    1    1    2    0    0 -0.38498584166E+00 -0.12082071163E+01  0.27860193899E+02  0.28031961806E+02  0.28271010000E+01 0. -1.
<mgrwt>
<rscale>  0 0.62087917E+01</rscale>
<asrwt>0</asrwt>
<pdfrwt beam="2">  1        1 0.38901045E+00 0.62087917E+01</pdfrwt>
<pdfrwt beam="1">  1       -1 0.43677453E+00 0.62087917E+01</pdfrwt>
<totfact> 0.31030786E-02</totfact>
</mgrwt>
</event>
